Generic title
12227
    1ILE      N    1   1.610   1.562   3.804 -0.0933 -0.4474  0.2984
    1ILE     H1    2   1.659   1.497   3.864  2.6968  0.6147 -0.6404
    1ILE     H2    3   1.642   1.533   3.713  0.9373 -2.8414  1.3358
    1ILE     H3    4   1.509   1.566   3.800 -0.1332  0.5964  1.5518
    1ILE     CA    5   1.673   1.693   3.837 -0.3245 -0.7080 -0.4581
    1ILE     HA    6   1.653   1.766   3.759 -3.7412 -0.3241  0.6306
    1ILE     CB    7   1.615   1.768   3.966  0.0293 -0.1905 -0.0493
    1ILE     HB    8   1.507   1.778   3.954  0.1885  0.0023 -1.6174
    1ILE    CG2    9   1.637   1.690   4.098  0.1639 -0.7203  0.4989
    1ILE   HG21   10   1.743   1.690   4.124 -0.0038 -0.1652  1.2305
    1ILE   HG22   11   1.571   1.722   4.179 -1.4537  0.1546 -1.0933
    1ILE   HG23   12   1.611   1.584   4.088  0.0833 -0.5506 -1.4311
    1ILE    CG1   13   1.665   1.908   3.989  0.7125  0.4406  0.3111
    1ILE   HG12   14   1.670   1.949   3.888  1.6868  0.1324  0.2158
    1ILE   HG13   15   1.767   1.899   4.027 -0.1547 -1.7855  2.3970
    1ILE    CD1   16   1.586   2.008   4.076 -0.1345  0.7367 -0.1521
    1ILE   HD11   17   1.610   1.974   4.177  0.6163 -4.9168 -1.8352
    1ILE   HD12   18   1.612   2.110   4.047 -1.3302  0.6368 -1.7216
    1ILE   HD13   19   1.479   1.997   4.059 -0.4577  2.1624  0.7762
    1ILE      C   20   1.819   1.675   3.850 -0.5152  0.6306  0.0011
    1ILE      O   21   1.864   1.567   3.900 -0.0365 -0.0148  0.2156
    2LEU      N   22   1.896   1.774   3.801  0.1355 -0.4616 -0.1718
    2LEU      H   23   1.841   1.849   3.762 -0.7172 -2.0576 -2.2540
    2LEU     CA   24   2.040   1.779   3.815  0.3578 -0.0061 -0.0320
    2LEU     HA   25   2.066   1.734   3.911 -0.8277  0.4332  0.5084
    2LEU     CB   26   2.101   1.701   3.691 -0.2686 -0.2388 -0.3370
    2LEU    HB2   27   2.057   1.601   3.689 -2.2650  0.5464  0.8606
    2LEU    HB3   28   2.063   1.757   3.606 -1.3123 -0.1293  0.1864
    2LEU     CG   29   2.257   1.686   3.691 -0.2122  0.4217  0.2370
    2LEU     HG   30   2.304   1.784   3.688 -1.3301  1.0465  1.7054
    2LEU    CD1   31   2.307   1.601   3.808 -0.1037  0.5126 -0.6561
    2LEU   HD11   32   2.263   1.502   3.814 -0.5158  0.6874 -0.7181
    2LEU   HD12   33   2.412   1.578   3.791 -0.1501 -1.1726  1.0050
    2LEU   HD13   34   2.296   1.660   3.899  0.3833  0.8871 -0.8331
    2LEU    CD2   35   2.305   1.623   3.564 -0.1063  1.2110 -0.0618
    2LEU   HD21   36   2.276   1.681   3.477 -2.8904 -0.5285 -0.4025
    2LEU   HD22   37   2.413   1.607   3.564 -0.3315 -0.4942 -0.6649
    2LEU   HD23   38   2.260   1.525   3.548  2.7455 -0.0624 -0.9202
    2LEU      C   39   2.097   1.926   3.817 -0.2925  0.3807 -0.3381
    2LEU      O   40   2.030   2.018   3.777 -0.1013 -0.3658  0.4531
    3ARG      N   41   2.224   1.949   3.868  0.1443  0.4350  0.2499
    3ARG      H   42   2.262   1.871   3.920 -0.5755 -0.3330 -0.3468
    3ARG     CA   43   2.297   2.077   3.858  0.0218 -0.0070  0.3578
    3ARG     HA   44   2.276   2.127   3.763  1.5931  1.0035  0.5279
    3ARG     CB   45   2.250   2.167   3.974 -0.0167 -0.3275  0.1149
    3ARG    HB2   46   2.142   2.172   3.979  0.0816  0.6944  1.9444
    3ARG    HB3   47   2.276   2.111   4.064  1.0881 -0.4385 -0.2613
    3ARG     CG   48   2.317   2.304   3.975  0.5746  0.3770  0.4740
    3ARG    HG2   49   2.419   2.296   4.010  0.6672  2.5224  0.8098
    3ARG    HG3   50   2.306   2.355   3.879  0.5486  0.6883  0.6413
    3ARG     CD   51   2.247   2.394   4.079 -0.3244 -0.2770  0.8030
    3ARG    HD2   52   2.145   2.415   4.046 -0.5298  0.2115  1.7355
    3ARG    HD3   53   2.237   2.357   4.181 -2.3296  0.0094  0.7612
    3ARG     NE   54   2.321   2.526   4.090  0.1135 -0.3535 -0.0347
    3ARG     HE   55   2.415   2.521   4.054 -0.3666  0.2801 -1.4294
    3ARG     CZ   56   2.286   2.628   4.157 -0.5373  0.1148 -0.4963
    3ARG    NH1   57   2.176   2.629   4.229  0.1274  0.2223 -0.0246
    3ARG   HH11   58   2.104   2.559   4.228 -0.4815  0.8429 -0.1823
    3ARG   HH12   59   2.152   2.717   4.271  3.3958  0.8721  0.8024
    3ARG    NH2   60   2.365   2.733   4.158  0.1466  0.4166  0.1255
    3ARG   HH21   61   2.461   2.726   4.128 -0.0820 -0.4873 -0.4357
    3ARG   HH22   62   2.337   2.814   4.212 -1.3217  0.2108 -0.2871
    3ARG      C   63   2.450   2.053   3.873 -0.1503  0.6669 -0.1741
    3ARG      O   64   2.487   1.959   3.940 -0.3563  0.4353  0.7815
    4TRP      N   65   2.536   2.132   3.809  0.6569 -0.5007  0.1104
    4TRP      H   66   2.497   2.206   3.752 -0.2781 -0.9959  0.0837
    4TRP     CA   67   2.678   2.156   3.820  0.1849  0.0408 -0.2631
    4TRP     HA   68   2.714   2.131   3.920  1.0263  2.7481  0.1944
    4TRP     CB   69   2.737   2.052   3.725  0.1714 -0.5241 -0.4488
    4TRP    HB2   70   2.673   1.963   3.724  0.0966 -0.4690 -0.6235
    4TRP    HB3   71   2.728   2.087   3.622 -4.5650  1.1011  0.2646
    4TRP     CG   72   2.871   1.986   3.751 -0.3915 -0.1146  0.2333
    4TRP    CD1   73   2.939   1.923   3.647 -0.1630 -0.3021 -0.8099
    4TRP    HD1   74   2.906   1.911   3.545 -0.3776 -2.2238 -0.5621
    4TRP    NE1   75   3.060   1.873   3.699 -0.4730  0.1789  0.2440
    4TRP    HE1   76   3.123   1.825   3.636 -1.5514  0.1947 -0.8885
    4TRP    CE2   77   3.080   1.913   3.835 -0.2825 -0.1056 -0.5270
    4TRP    CZ2   78   3.187   1.891   3.928 -0.1040  0.3108 -0.0753
    4TRP    HZ2   79   3.280   1.847   3.893  0.8463 -0.2898  2.9609
    4TRP    CH2   80   3.175   1.945   4.059  0.4716  0.9584  0.3904
    4TRP    HH2   81   3.254   1.927   4.130 -0.2321 -2.7768  0.4136
    4TRP    CZ3   82   3.055   2.007   4.094  1.2572 -0.9218  0.0823
    4TRP    HZ3   83   3.045   2.046   4.194 -0.7182 -0.6068 -0.1986
    4TRP    CE3   84   2.948   2.015   4.003  1.1587  0.6227 -0.4624
    4TRP    HE3   85   2.852   2.055   4.034  0.7140  0.3626 -1.4394
    4TRP    CD2   86   2.959   1.976   3.869 -0.2679 -0.3333 -0.6545
    4TRP      C   87   2.706   2.310   3.801 -0.4336 -0.4764  0.2246
    4TRP      O   88   2.610   2.389   3.823 -0.4796 -0.2265 -0.3030
    5PRO      N   89   2.827   2.360   3.770 -0.3058  0.3974  0.0954
    5PRO     CD   90   2.946   2.286   3.725  0.0506 -0.2803  0.2250
    5PRO    HD2   91   2.936   2.242   3.626  0.1726  0.5430 -0.1614
    5PRO    HD3   92   2.994   2.214   3.792  0.5194  0.5639  0.8231
    5PRO     CG   93   3.057   2.395   3.712 -0.1724  0.1596 -0.2376
    5PRO    HG2   94   3.056   2.436   3.611  3.7163 -0.9690 -0.9004
    5PRO    HG3   95   3.153   2.351   3.739 -0.5740 -0.5139  0.1227
    5PRO     CB   96   3.015   2.491   3.814 -0.3122 -0.2767 -0.8687
    5PRO    HB2   97   3.058   2.590   3.795  0.6872 -1.0445 -2.8696
    5PRO    HB3   98   3.041   2.446   3.910  1.4373 -2.0734 -2.1163
    5PRO     CA   99   2.862   2.497   3.793 -0.3605 -0.0942 -0.2300
    5PRO     HA  100   2.823   2.534   3.889 -0.8749 -2.2615  0.4545
    5PRO      C  101   2.821   2.583   3.676  0.7007 -0.0645 -0.0076
    5PRO      O  102   2.787   2.542   3.562 -0.5008  0.7503  0.3162
    6TRP      N  103   2.831   2.711   3.701 -0.5927 -0.3405  0.3309
    6TRP      H  104   2.847   2.747   3.795  0.6836  0.7568 -0.2623
    6TRP     CA  105   2.822   2.814   3.597  0.0201  0.5573 -0.0128
    6TRP     HA  106   2.855   2.772   3.502  0.5022 -1.5497  1.0393
    6TRP     CB  107   2.677   2.852   3.558 -0.1510  0.0500 -0.5351
    6TRP    HB2  108   2.622   2.758   3.564  0.0123 -0.1443 -1.7697
    6TRP    HB3  109   2.634   2.912   3.638  1.9822 -0.4539  1.0888
    6TRP     CG  110   2.653   2.927   3.436  0.0481 -0.1120 -0.2701
    6TRP    CD1  111   2.548   3.018   3.416 -0.3159  0.4930 -0.1380
    6TRP    HD1  112   2.464   3.026   3.483  0.6884  0.6631  1.1270
    6TRP    NE1  113   2.552   3.076   3.291  0.0319 -0.3824 -0.2416
    6TRP    HE1  114   2.476   3.125   3.246 -0.4508 -0.0927  0.8587
    6TRP    CE2  115   2.659   3.030   3.222 -0.6381  0.9790 -0.1442
    6TRP    CZ2  116   2.702   3.063   3.099 -0.6479 -0.0778  0.4876
    6TRP    HZ2  117   2.655   3.150   3.056  1.4747  1.1261  0.4478
    6TRP    CH2  118   2.809   2.997   3.042  0.6135 -0.5736  0.2338
    6TRP    HH2  119   2.839   3.023   2.941  1.6406 -4.2748 -0.5746
    6TRP    CZ3  120   2.871   2.896   3.112 -0.0009 -0.3443  0.2440
    6TRP    HZ3  121   2.958   2.846   3.072 -1.2039 -2.6656  0.3385
    6TRP    CE3  122   2.829   2.863   3.243 -0.0281 -0.1941 -0.3903
    6TRP    HE3  123   2.872   2.781   3.298  1.3869  2.3302  2.5756
    6TRP    CD2  124   2.725   2.931   3.305  0.5563 -0.5808 -0.0864
    6TRP      C  125   2.913   2.934   3.636 -0.0640  0.0516  0.6536
    6TRP      O  126   2.920   2.981   3.754 -0.3623  0.6106 -0.1729
    7TRP      N  127   2.972   2.988   3.530  0.2276  0.2051 -0.4146
    7TRP      H  128   2.966   2.944   3.439 -1.6911  1.1899 -0.8176
    7TRP     CA  129   3.031   3.126   3.533 -0.4209  0.3994  0.1139
    7TRP     HA  130   2.990   3.178   3.619  0.5828  0.6484  0.4488
    7TRP     CB  131   3.180   3.107   3.565 -0.5457 -0.1487 -0.0690
    7TRP    HB2  132   3.192   3.037   3.648 -0.2887  1.6873  1.5058
    7TRP    HB3  133   3.234   3.075   3.476 -0.6552  0.7528 -0.4644
    7TRP     CG  134   3.262   3.221   3.618 -0.1753  0.0161  0.4069
    7TRP    CD1  135   3.399   3.207   3.634  0.4980 -0.3472  0.2336
    7TRP    HD1  136   3.461   3.119   3.623  0.7559 -0.0037 -1.2149
    7TRP    NE1  137   3.450   3.337   3.645  0.3889 -0.1238 -0.2267
    7TRP    HE1  138   3.550   3.351   3.653  0.2525  1.4229 -0.8282
    7TRP    CE2  139   3.350   3.432   3.661  0.0564 -0.2763  0.0866
    7TRP    CZ2  140   3.350   3.566   3.697  0.0838 -0.3864 -0.0211
    7TRP    HZ2  141   3.443   3.620   3.707  0.6922 -1.3381 -0.4419
    7TRP    CH2  142   3.228   3.630   3.717  0.2397  1.0109  0.4551
    7TRP    HH2  143   3.231   3.733   3.746  0.1757  1.7397 -1.8769
    7TRP    CZ3  144   3.108   3.564   3.700 -0.0182  0.0962  0.1147
    7TRP    HZ3  145   3.015   3.618   3.708  0.4387  0.9205  0.0189
    7TRP    CE3  146   3.102   3.428   3.667 -0.3552 -0.0689 -0.0891
    7TRP    HE3  147   3.005   3.381   3.656 -1.4603  1.4632  2.2404
    7TRP    CD2  148   3.223   3.355   3.654 -0.8412  0.2691  0.1712
    7TRP      C  149   2.987   3.212   3.404 -0.4947 -0.2310  0.2378
    7TRP      O  150   2.870   3.246   3.398  0.6197  0.1521 -0.0615
    8PRO      N  151   3.069   3.255   3.305 -0.0713 -0.0842  0.0654
    8PRO     CD  152   3.200   3.323   3.325 -0.4312  0.1948  0.1208
    8PRO    HD2  153   3.273   3.243   3.312 -0.1919  0.5136 -0.5506
    8PRO    HD3  154   3.208   3.371   3.422  0.3963 -1.7588  1.0614
    8PRO     CG  155   3.208   3.443   3.230  0.1714 -0.3254  0.3237
    8PRO    HG2  156   3.277   3.413   3.151 -0.6926  0.6475 -0.8445
    8PRO    HG3  157   3.252   3.524   3.289  1.0417 -0.6061  0.0776
    8PRO     CB  158   3.060   3.460   3.184 -0.1661 -0.7026  0.3394
    8PRO    HB2  159   3.060   3.505   3.085 -0.7440 -3.0656 -0.7916
    8PRO    HB3  160   3.000   3.515   3.257 -0.3995  1.3439 -1.3138
    8PRO     CA  161   3.014   3.313   3.177  0.1787  0.4260  0.5359
    8PRO     HA  162   2.906   3.310   3.168  0.1010  2.1465  0.5088
    8PRO      C  163   3.056   3.245   3.044  0.3266  0.1792  0.4668
    8PRO      O  164   3.148   3.164   3.044 -0.2510 -0.1348 -0.5396
    9TRP      N  165   3.000   3.292   2.928 -0.1477  0.1008 -0.6298
    9TRP      H  166   2.929   3.363   2.943  0.3964  0.8868 -1.6613
    9TRP     CA  167   3.057   3.272   2.801  0.3227  0.2199 -0.0466
    9TRP     HA  168   3.164   3.264   2.818  0.3669  0.2112 -0.3199
    9TRP     CB  169   3.007   3.136   2.744 -0.9795  0.1521  0.6774
    9TRP    HB2  170   3.049   3.062   2.813 -0.2605  1.3056  1.5108
    9TRP    HB3  171   2.900   3.114   2.747 -0.7205 -1.2690  0.5443
    9TRP     CG  172   3.062   3.090   2.608 -0.4275 -0.8749  0.0264
    9TRP    CD1  173   2.995   3.025   2.512 -0.3558  0.8861 -0.0188
    9TRP    HD1  174   2.896   2.988   2.535 -0.5802  1.1079 -0.5976
    9TRP    NE1  175   3.075   2.990   2.407 -0.2833 -0.4673 -0.0403
    9TRP    HE1  176   3.044   2.945   2.322 -1.0897  2.4783 -1.4258
    9TRP    CE2  177   3.197   3.043   2.416 -0.4410 -0.6259  0.6894
    9TRP    CZ2  178   3.312   3.042   2.336  0.2399  0.2955 -0.1748
    9TRP    HZ2  179   3.315   2.998   2.237 -1.0898  1.0513 -0.5760
    9TRP    CH2  180   3.427   3.110   2.375  1.0814  0.0754  0.9193
    9TRP    HH2  181   3.507   3.122   2.302 -1.1408  0.1333 -1.6876
    9TRP    CZ3  182   3.434   3.163   2.505 -0.9220 -0.2024  0.0872
    9TRP    HZ3  183   3.532   3.200   2.532  0.4235 -2.8897 -0.8077
    9TRP    CE3  184   3.323   3.161   2.592 -0.0809 -1.2788 -0.0074
    9TRP    HE3  185   3.325   3.212   2.688 -1.3854  1.1074 -1.1568
    9TRP    CD2  186   3.202   3.105   2.546 -0.0155  0.3751  0.3903
    9TRP      C  187   3.016   3.377   2.693  0.3252 -0.3391  0.4047
    9TRP      O  188   2.899   3.432   2.697 -0.5545 -0.4052 -0.7533
   10ARG      N  189   3.097   3.397   2.588 -0.5727  0.0959 -0.0049
   10ARG      H  190   3.179   3.338   2.581  1.6653  3.0580 -0.7681
   10ARG     CA  191   3.076   3.485   2.471 -0.0985 -0.1611 -0.3439
   10ARG     HA  192   2.971   3.514   2.465  0.1795  1.0807  0.3686
   10ARG     CB  193   3.150   3.620   2.497  0.4460 -0.3514 -0.0134
   10ARG    HB2  194   3.108   3.662   2.588 -2.4590 -3.5382  0.3395
   10ARG    HB3  195   3.258   3.614   2.509  0.5493  0.4911 -0.4464
   10ARG     CG  196   3.130   3.725   2.381  0.6935 -0.2890  0.1911
   10ARG    HG2  197   3.174   3.696   2.285 -2.1834  2.1350 -2.0376
   10ARG    HG3  198   3.024   3.748   2.374  1.1269  2.8249  1.9311
   10ARG     CD  199   3.201   3.857   2.410 -0.7411 -0.5751  0.0588
   10ARG    HD2  200   3.144   3.913   2.485  0.1992 -0.3696  0.6365
   10ARG    HD3  201   3.299   3.844   2.456 -0.5227 -0.1973 -0.2885
   10ARG     NE  202   3.213   3.930   2.288  0.3349 -1.1192  0.4551
   10ARG     HE  203   3.175   3.890   2.203 -1.2397  1.1805 -0.0158
   10ARG     CZ  204   3.270   4.051   2.257  0.1705  1.1912 -0.1833
   10ARG    NH1  205   3.324   4.122   2.341 -0.0038  0.2163 -0.1385
   10ARG   HH11  206   3.353   4.090   2.432 -1.6159 -1.1011 -0.0553
   10ARG   HH12  207   3.346   4.214   2.304  0.7914 -0.8857 -2.5505
   10ARG    NH2  208   3.262   4.095   2.131  0.4516  0.2875 -0.4622
   10ARG   HH21  209   3.216   4.039   2.061  1.8595 -0.3028 -0.9520
   10ARG   HH22  210   3.288   4.191   2.117 -2.7624  1.6061  1.5248
   10ARG      C  211   3.128   3.428   2.340  0.2228  0.1752 -0.4856
   10ARG      O  212   3.250   3.401   2.330  0.6665 -0.4392  0.0758
   11ARG      N  213   3.055   3.434   2.230  0.5799 -0.0962 -0.3748
   11ARG      H  214   2.960   3.468   2.240  0.2056 -1.6858  2.7678
   11ARG     CA  215   3.081   3.387   2.091 -0.2958 -0.6722 -0.2691
   11ARG     HA  216   3.186   3.358   2.094  0.7206  2.5716  2.3748
   11ARG     CB  217   3.003   3.265   2.048  0.2737 -0.2140 -0.1545
   11ARG    HB2  218   3.006   3.193   2.130 -1.7355 -0.3641 -0.1655
   11ARG    HB3  219   2.898   3.294   2.049  0.0807 -0.8938  0.4673
   11ARG     CG  220   3.040   3.195   1.919  0.3894  0.5310  0.6145
   11ARG    HG2  221   3.028   3.265   1.836 -1.7357 -0.4548  0.0239
   11ARG    HG3  222   3.146   3.172   1.929 -0.0201 -1.1469  1.5354
   11ARG     CD  223   2.964   3.068   1.879  0.0301 -0.0810  0.1060
   11ARG    HD2  224   2.972   2.997   1.961 -1.3755  1.1001  1.3507
   11ARG    HD3  225   2.856   3.078   1.862 -0.1119 -1.2500  0.2432
   11ARG     NE  226   3.018   3.016   1.750  0.1357 -0.4449  0.1802
   11ARG     HE  227   3.078   3.077   1.697 -0.0056 -0.2851  0.2028
   11ARG     CZ  228   2.992   2.896   1.692  0.1541  0.1053 -0.6407
   11ARG    NH1  229   2.919   2.806   1.749  0.4732  0.7184  0.1227
   11ARG   HH11  230   2.900   2.815   1.847 -0.6416 -1.1564  0.1429
   11ARG   HH12  231   2.913   2.711   1.713  0.2607  0.9208 -0.3865
   11ARG    NH2  232   3.053   2.872   1.579 -0.4647  0.0818 -0.2714
   11ARG   HH21  233   3.105   2.950   1.541  0.2404 -0.6740 -0.8887
   11ARG   HH22  234   3.025   2.791   1.526 -1.4408 -0.2134  0.6521
   11ARG      C  235   3.066   3.504   1.996 -0.4932 -0.7459 -0.2963
   11ARG      O  236   2.994   3.596   2.023 -0.0685  0.0639 -0.2248
   12LYS      N  237   3.131   3.500   1.880 -0.5598 -0.3845  0.5863
   12LYS      H  238   3.186   3.419   1.856 -0.2693  0.0751 -0.3534
   12LYS     CA  239   3.110   3.584   1.762  0.3295  0.3404  0.9788
   12LYS     HA  240   3.009   3.627   1.766 -0.0379 -0.5367  1.3788
   12LYS     CB  241   3.219   3.698   1.765  0.2087 -0.0560  0.2519
   12LYS    HB2  242   3.229   3.736   1.867  0.0844 -0.1163  0.2870
   12LYS    HB3  243   3.312   3.652   1.732  0.5829  0.1317  1.0182
   12LYS     CG  244   3.177   3.824   1.677  0.2243 -0.9459  0.0096
   12LYS    HG2  245   3.160   3.806   1.571 -1.5614 -1.2152  0.3226
   12LYS    HG3  246   3.077   3.858   1.703  0.6825  0.1699  0.3936
   12LYS     CD  247   3.282   3.944   1.701 -0.5829 -0.7670 -0.5691
   12LYS    HD2  248   3.284   3.970   1.807  0.2979 -0.7424 -0.5815
   12LYS    HD3  249   3.380   3.905   1.673 -0.4050 -0.4820 -0.3545
   12LYS     CE  250   3.221   4.065   1.624 -0.1386 -0.2964  0.5393
   12LYS    HE2  251   3.222   4.033   1.520  0.2995 -0.0882  0.4787
   12LYS    HE3  252   3.121   4.080   1.664 -0.1538 -3.3121  1.8754
   12LYS     NZ  253   3.295   4.195   1.649  0.2783  0.4173  0.0007
   12LYS    HZ1  254   3.391   4.201   1.618  0.7911 -2.6398  0.7554
   12LYS    HZ2  255   3.240   4.268   1.605 -3.9405 -0.9257  2.5214
   12LYS    HZ3  256   3.294   4.220   1.747 -0.5537 -0.3641  0.1996
   12LYS      C  257   3.123   3.498   1.632  0.7865 -0.4496  0.3331
   12LYS      O  258   3.180   3.389   1.632  0.7412  0.2285 -0.2424
   13NHE      N  259   3.080   3.547   1.513 -0.8370 -1.0773 -0.5600
   13NHE    HN1  260   3.053   3.644   1.509 -0.3838 -0.6956  2.5563
   13NHE    HN2  261   3.085   3.491   1.429 -0.0021 -0.6993 -0.7717
   14Cl-    Cl-  262   3.809   0.091   2.174  0.0232 -0.4763  0.2488
   15Cl-    Cl-  263   1.740   5.205   1.643  0.0104  0.0655  0.3936
   16Cl-    Cl-  264   4.304   2.633   2.386 -0.0399  0.4129 -0.1720
   17Cl-    Cl-  265   2.291   4.346   4.249  0.4312 -0.1046  0.2746
   18Cl-    Cl-  266   3.547   1.298   3.195  0.1838 -0.4708 -0.0248
   19WAT      O  267   1.365   0.072   2.899  0.2878  0.6082 -0.2865
   19WAT     H1  268   1.297   0.136   2.879  1.6461  2.3752  0.4326
   19WAT     H2  269   1.357   0.006   2.830 -2.2656  0.6079 -0.0813
   20WAT      O  270   3.281   5.557   5.032 -0.2231 -0.1187  0.5228
   20WAT     H1  271   3.190   5.559   5.005 -0.0627  0.1492 -0.0162
   20WAT     H2  272   3.297   5.644   5.069  0.0181  0.1054 -0.0939
   21WAT      O  273   1.728   1.933   2.834 -0.4818  0.2930 -0.3292
   21WAT     H1  274   1.716   1.840   2.815 -0.0271  0.1626  0.0131
   21WAT     H2  275   1.712   1.940   2.928 -0.8869  0.6267 -0.4218
   22WAT      O  276   0.006   0.306   2.755 -0.2237  0.4126  0.1284
   22WAT     H1  277   0.035   0.396   2.774 -0.3273  0.3668  0.5156
   22WAT     H2  278   0.054   0.252   2.817 -0.2891  0.2173  0.0094
   23WAT      O  279   3.802   4.885   4.358  0.2631  0.0461 -0.3335
   23WAT     H1  280   3.855   4.805   4.363 -0.2321 -0.2302  1.0140
   23WAT     H2  281   3.742   4.879   4.433  0.3416  1.7716 -0.0876
   24WAT      O  282   3.801   4.674   5.482 -0.2890 -0.4691 -0.0525
   24WAT     H1  283   3.878   4.637   5.526  0.6736  1.5786  0.0698
   24WAT     H2  284   3.783   4.613   5.411 -0.3899 -2.5541  1.6514
   25WAT      O  285   1.800   0.326   1.284  0.0327  0.1684 -0.2222
   25WAT     H1  286   1.830   0.304   1.373 -1.7823  0.0723  0.4097
   25WAT     H2  287   1.804   0.243   1.237 -0.0524 -0.0228  0.1016
   26WAT      O  288   3.975   4.458   0.519 -0.3272  0.2400  0.6262
   26WAT     H1  289   4.065   4.491   0.525  0.1953 -0.6843 -1.2626
   26WAT     H2  290   3.933   4.513   0.453 -0.0999 -1.3954 -0.9465
   27WAT      O  291   0.767   4.964   3.337 -0.0849 -0.3415  0.1623
   27WAT     H1  292   0.757   5.047   3.291  0.0581 -0.9139 -0.9178
   27WAT     H2  293   0.752   4.986   3.429  0.5207  0.9856 -0.0386
   28WAT      O  294   2.005   4.441   2.468  0.1733 -0.1622 -0.0017
   28WAT     H1  295   1.932   4.460   2.410  0.6608  1.6672 -0.0695
   28WAT     H2  296   2.056   4.374   2.422  0.7453  1.4863 -1.8794
   29WAT      O  297   4.166   0.638   2.233 -0.1508 -0.3179  0.5898
   29WAT     H1  298   4.216   0.563   2.200  0.8026 -0.6088  2.5160
   29WAT     H2  299   4.115   0.668   2.158  0.8828 -1.7097 -0.7372
   30WAT      O  300   1.524   2.696   4.962 -0.1701  0.6104  0.3327
   30WAT     H1  301   1.476   2.761   4.911  0.9700  3.0839  2.2326
   30WAT     H2  302   1.461   2.626   4.977 -1.4431  1.1998 -1.8092
   31WAT      O  303   4.501   1.166   2.812  0.4521 -0.1938  0.2794
   31WAT     H1  304   4.528   1.257   2.823 -0.2249  0.2841 -1.5585
   31WAT     H2  305   4.575   1.125   2.766  0.7219 -0.5606  1.0300
   32WAT      O  306   3.997   5.233   4.294 -0.2105  0.0102 -0.2834
   32WAT     H1  307   4.076   5.285   4.285 -0.6053  0.4657 -1.2139
   32WAT     H2  308   4.026   5.142   4.284  0.0574  0.2311 -1.7167
   33WAT      O  309   2.372   4.968   3.957 -0.1752 -0.3026  0.8710
   33WAT     H1  310   2.392   4.898   4.019  0.4271 -0.7711  0.1723
   33WAT     H2  311   2.442   4.963   3.892  0.1354  1.2616  1.0513
   34WAT      O  312   1.074   0.239   3.180 -0.3475  0.3414 -0.2748
   34WAT     H1  313   1.163   0.208   3.191 -0.8981 -1.0627  0.4478
   34WAT     H2  314   1.032   0.174   3.123 -1.5253 -0.3246  1.2633
   35WAT      O  315   2.812   5.295   1.227  0.0536  0.0345 -0.3938
   35WAT     H1  316   2.825   5.215   1.177 -2.6101  0.5306 -2.0640
   35WAT     H2  317   2.875   5.357   1.190 -0.6719 -0.1256 -1.9810
   36WAT      O  318   1.050   4.911   3.434 -0.6152  0.1866 -0.4494
   36WAT     H1  319   1.067   4.836   3.377 -1.0231 -0.2564  0.0064
   36WAT     H2  320   0.981   4.960   3.388 -0.1680  0.4270 -0.8729
   37WAT      O  321   2.112   3.504   3.758  0.6076 -0.8204 -0.1914
   37WAT     H1  322   2.150   3.418   3.775  1.2341 -0.9645 -2.0576
   37WAT     H2  323   2.171   3.544   3.693  0.1034  0.8546  0.3148
   38WAT      O  324   0.524   2.205   3.439 -0.1727 -0.1152 -0.4545
   38WAT     H1  325   0.481   2.272   3.387  0.8473  0.7545 -0.2045
   38WAT     H2  326   0.617   2.210   3.414 -0.2599 -2.5168 -1.6206
   39WAT      O  327   2.515   3.591   0.293  0.0714 -0.0888  0.3826
   39WAT     H1  328   2.522   3.663   0.231 -0.5042 -0.2662  0.1032
   39WAT     H2  329   2.483   3.631   0.374 -0.5033 -0.0625  0.1494
   40WAT      O  330   3.073   0.005   5.653 -0.1279  0.2422  0.1746
   40WAT     H1  331   3.056   0.034   5.563 -0.9673  1.3741  0.6623
   40WAT     H2  332   3.017   0.062   5.706  0.1826 -0.5689  1.3966
   41WAT      O  333   0.153   3.999   2.352  0.0899  0.1225  0.6265
   41WAT     H1  334   0.169   3.920   2.301 -0.4074 -0.3145  1.1188
   41WAT     H2  335   0.239   4.040   2.362  0.2859 -0.1289  0.0053
   42WAT      O  336   1.004   2.093   3.657  0.1139  0.2225  0.0050
   42WAT     H1  337   0.912   2.105   3.679 -0.2900 -1.0939 -0.8180
   42WAT     H2  338   1.026   2.167   3.600 -0.3303  0.7204  0.4743
   43WAT      O  339   1.814   0.466   0.986 -0.3923  0.4939 -0.0367
   43WAT     H1  340   1.760   0.446   1.061 -1.1520  1.2990 -0.3492
   43WAT     H2  341   1.812   0.387   0.932  1.5589 -0.7486  1.5457
   44WAT      O  342   0.237   2.530   2.927 -0.6288 -0.0562  0.2786
   44WAT     H1  343   0.144   2.536   2.947 -0.3974 -0.5361  1.6761
   44WAT     H2  344   0.255   2.436   2.922 -0.1671  0.0229  0.3534
   45WAT      O  345   0.664   0.120   3.174 -0.2494  0.6793 -0.2760
   45WAT     H1  346   0.734   0.181   3.198 -0.2625  0.7007 -0.2916
   45WAT     H2  347   0.583   0.169   3.191 -0.3010  0.1285  1.1900
   46WAT      O  348   0.786   2.719   4.856 -0.0915 -0.2387  0.4115
   46WAT     H1  349   0.772   2.771   4.777 -1.8754 -1.8407 -0.4176
   46WAT     H2  350   0.732   2.761   4.923  0.5761  0.4891  0.5077
   47WAT      O  351   1.858   1.248   5.107 -0.0903  0.0946 -0.2407
   47WAT     H1  352   1.831   1.339   5.123 -1.3522  0.1541 -2.3132
   47WAT     H2  353   1.781   1.207   5.067  1.0779 -1.3675 -1.0904
   48WAT      O  354   2.065   0.334   4.884 -0.8165 -0.3445 -0.1361
   48WAT     H1  355   1.979   0.292   4.876 -1.0197  0.3192 -2.0104
   48WAT     H2  356   2.123   0.278   4.832 -0.0632 -0.8376  1.1895
   49WAT      O  357   1.247   3.928   0.749  0.0338 -0.2032 -0.2306
   49WAT     H1  358   1.278   3.894   0.665 -0.3437 -0.6864 -0.1783
   49WAT     H2  359   1.159   3.891   0.758  0.7168 -1.6026  1.1875
   50WAT      O  360   3.221   0.435   3.203  0.0957 -0.0941  0.2564
   50WAT     H1  361   3.207   0.347   3.167 -0.4010 -0.0464  0.3324
   50WAT     H2  362   3.297   0.468   3.155  1.0895 -1.0486  1.0976
   51WAT      O  363   1.996   4.906   3.063 -0.7031 -0.0800  0.4533
   51WAT     H1  364   2.021   4.988   3.106  1.3013 -1.8559  3.0301
   51WAT     H2  365   1.938   4.932   2.992  2.4552  3.8852 -1.0181
   52WAT      O  366   3.259   4.034   2.757 -1.1106  0.3645 -0.1136
   52WAT     H1  367   3.321   4.060   2.689 -2.1568  1.7565 -0.5898
   52WAT     H2  368   3.236   4.116   2.801 -2.3531 -0.1554  0.2677
   53WAT      O  369   3.714   4.594   2.631  0.7317  0.4048  0.3480
   53WAT     H1  370   3.685   4.663   2.572  1.2194  0.1683 -0.1790
   53WAT     H2  371   3.700   4.629   2.719 -1.3015  0.2335  0.1289
   54WAT      O  372   1.514   0.541   5.412 -0.3668 -0.6658 -0.1427
   54WAT     H1  373   1.422   0.537   5.437 -0.7966  0.3697 -1.4335
   54WAT     H2  374   1.561   0.562   5.492 -1.5469  1.3499  0.0684
   55WAT      O  375   2.494   0.323   3.467  0.1137 -0.4582 -0.0441
   55WAT     H1  376   2.473   0.387   3.399  1.7552  0.2814  0.0738
   55WAT     H2  377   2.500   0.375   3.547 -0.5528 -1.1088  0.4289
   56WAT      O  378   2.023   5.307   5.165  0.2588 -0.4761  0.2401
   56WAT     H1  379   2.098   5.284   5.219  0.9073  1.3075  0.1586
   56WAT     H2  380   1.964   5.231   5.172  2.4539 -2.3449 -0.4705
   57WAT      O  381   2.935   2.806   4.456  0.0579  0.5536 -0.0906
   57WAT     H1  382   2.989   2.761   4.520  0.6788  1.0801 -0.2263
   57WAT     H2  383   2.989   2.880   4.427 -0.9005  1.3498  0.0826
   58WAT      O  384   3.646   3.647   4.379 -0.2289  0.2648  0.2831
   58WAT     H1  385   3.673   3.602   4.299  0.0864 -2.0243  1.5969
   58WAT     H2  386   3.563   3.689   4.357  0.0145 -0.0526 -1.3042
   59WAT      O  387   1.648   5.498   4.418 -0.2111  0.4770  0.0122
   59WAT     H1  388   1.617   5.527   4.504  1.7273 -0.3881  1.0587
   59WAT     H2  389   1.703   5.570   4.387  2.4302 -0.8013  1.4156
   60WAT      O  390   0.781   5.447   4.521 -0.3966 -0.2936 -0.2872
   60WAT     H1  391   0.777   5.375   4.583 -1.8651 -0.8335 -0.9557
   60WAT     H2  392   0.725   5.419   4.449  1.5489  0.1471 -2.0550
   61WAT      O  393   2.871   4.276   2.485 -0.0113  0.4429 -0.1335
   61WAT     H1  394   2.950   4.252   2.533  1.3033  2.5184 -1.1145
   61WAT     H2  395   2.882   4.236   2.399 -0.2383  0.3756 -0.1332
   62WAT      O  396   1.457   4.600   0.834 -0.1238 -0.4438  0.2774
   62WAT     H1  397   1.500   4.673   0.790 -0.5981 -0.1009  0.3813
   62WAT     H2  398   1.452   4.626   0.926  0.5304 -1.0010  0.4767
   63WAT      O  399   3.206   3.241   0.334 -0.3476 -0.1801  0.4663
   63WAT     H1  400   3.211   3.172   0.268 -0.5542  0.9414 -0.7545
   63WAT     H2  401   3.162   3.199   0.408 -2.0126 -0.9379 -0.8585
   64WAT      O  402   2.997   4.834   4.106  0.5730 -1.0477 -0.0385
   64WAT     H1  403   2.971   4.913   4.154  0.1171 -1.3442  0.2050
   64WAT     H2  404   2.962   4.761   4.158  1.2240 -1.4236 -0.1201
   65WAT      O  405   1.218   4.330   2.363  0.2624  0.0427 -0.1256
   65WAT     H1  406   1.237   4.237   2.348 -0.6138  0.0277 -1.2664
   65WAT     H2  407   1.143   4.349   2.306  0.1890  1.3586  0.3727
   66WAT      O  408   1.097   1.318   4.480 -0.0220 -0.2209 -0.0507
   66WAT     H1  409   1.029   1.255   4.505 -0.5807 -0.0535 -1.1080
   66WAT     H2  410   1.099   1.314   4.384  0.0360  1.2657 -0.1310
   67WAT      O  411   2.640   5.309   3.852  0.0952  0.1919  0.4098
   67WAT     H1  412   2.573   5.368   3.819  0.5841 -0.0357 -1.0373
   67WAT     H2  413   2.692   5.363   3.912 -1.3089  0.3869  1.5007
   68WAT      O  414   2.373   1.227   5.072  0.5855 -0.0274 -0.3464
   68WAT     H1  415   2.379   1.318   5.102 -0.3939  0.7390 -2.2978
   68WAT     H2  416   2.280   1.213   5.056  0.9206 -0.6924 -1.9333
   69WAT      O  417   0.636   4.443   5.162  0.3102 -0.4108  0.4795
   69WAT     H1  418   0.649   4.405   5.249  0.8953  1.1456  1.1036
   69WAT     H2  419   0.706   4.508   5.153 -0.6544  0.5437 -0.5099
   70WAT      O  420   4.047   1.793   2.796 -0.6874 -0.5791  0.0470
   70WAT     H1  421   3.972   1.745   2.833 -0.6207  0.0458  1.0324
   70WAT     H2  422   4.059   1.755   2.709 -2.3312 -0.5097 -0.2509
   71WAT      O  423   1.544   5.318   4.660 -0.0205  0.2578 -0.6648
   71WAT     H1  424   1.633   5.352   4.671  0.0665  0.3977 -1.7167
   71WAT     H2  425   1.531   5.315   4.565 -1.4299  0.9713 -0.5136
   72WAT      O  426   1.984   3.408   3.501 -0.3211 -0.0119  0.2984
   72WAT     H1  427   1.940   3.487   3.531 -0.2213  0.1126  0.1176
   72WAT     H2  428   1.973   3.346   3.573  0.2544  0.4103  0.7611
   73WAT      O  429   2.169   1.361   0.152 -0.0723 -0.6405 -0.4154
   73WAT     H1  430   2.221   1.422   0.204 -0.5235  0.6644 -1.4404
   73WAT     H2  431   2.206   1.367   0.063 -2.7163  1.3505 -1.5040
   74WAT      O  432   1.974   0.729   2.200 -0.6929  0.0335  0.0497
   74WAT     H1  433   2.055   0.678   2.210  0.0748  1.2570  0.4023
   74WAT     H2  434   1.980   0.796   2.269 -1.7277  0.5071 -0.3063
   75WAT      O  435   4.078   5.638   1.994  0.3917  0.3862  0.0995
   75WAT     H1  436   4.054   5.545   1.988  1.2875  0.2261 -2.7076
   75WAT     H2  437   4.011   5.677   2.049  0.8169 -2.1404  2.6655
   76WAT      O  438   3.638   1.919   1.575  0.0992 -0.6959 -0.4977
   76WAT     H1  439   3.698   1.875   1.515  0.8219 -2.0050  1.0812
   76WAT     H2  440   3.576   1.851   1.601 -1.6524  0.4466 -1.4980
   77WAT      O  441   3.045   1.691   4.265 -0.3658 -0.3734 -0.3826
   77WAT     H1  442   3.125   1.656   4.303 -0.5861 -1.8417 -1.1468
   77WAT     H2  443   3.045   1.784   4.287 -0.0017 -0.9225  2.2706
   78WAT      O  444   1.797   1.519   5.417 -0.3148  0.3374  0.0191
   78WAT     H1  445   1.809   1.611   5.440 -0.5931  0.8593 -1.7801
   78WAT     H2  446   1.875   1.496   5.367  0.1955 -0.7126  1.2269
   79WAT      O  447   1.495   5.464   4.193 -0.2774  0.4212 -0.0158
   79WAT     H1  448   1.548   5.486   4.269 -1.4897 -1.4536  1.4762
   79WAT     H2  449   1.522   5.376   4.169 -2.4344 -0.4744  0.6138
   80WAT      O  450   3.855   4.019   5.276 -0.5675  0.7202 -0.1019
   80WAT     H1  451   3.924   4.016   5.210  0.3707  0.9417  0.8473
   80WAT     H2  452   3.819   3.931   5.278  2.2116 -0.4932  1.9897
   81WAT      O  453   2.770   3.155   4.582  0.2110  0.0022  0.1742
   81WAT     H1  454   2.830   3.199   4.642  0.2164  0.4289 -0.1404
   81WAT     H2  455   2.802   3.177   4.494  0.1265 -0.5063  0.0110
   82WAT      O  456   1.461   2.959   5.262  0.0927  1.1164  1.0659
   82WAT     H1  457   1.501   2.888   5.312 -1.5716  0.3841  1.4096
   82WAT     H2  458   1.471   3.036   5.318 -0.7846  0.5249  2.0712
   83WAT      O  459   2.962   3.401   5.544 -0.0373  0.3037 -0.5622
   83WAT     H1  460   2.953   3.393   5.639  1.5514  1.3643 -0.2716
   83WAT     H2  461   3.025   3.334   5.520  0.5627  0.8856 -0.6471
   84WAT      O  462   3.409   0.126   4.778  0.0773 -0.0077 -0.0339
   84WAT     H1  463   3.391   0.152   4.868  3.2380  0.6673  0.5225
   84WAT     H2  464   3.408   0.208   4.729 -0.8273 -0.2712 -0.4647
   85WAT      O  465   3.671   3.269   5.034 -0.2690 -0.2903  0.4959
   85WAT     H1  466   3.749   3.213   5.029 -1.3170 -1.7140 -2.2435
   85WAT     H2  467   3.698   3.352   4.995  0.5449  0.1756  1.9966
   86WAT      O  468   2.031   4.851   3.383 -0.1909  0.0012 -0.1290
   86WAT     H1  469   1.968   4.899   3.437 -0.9728  0.4878 -1.4403
   86WAT     H2  470   2.011   4.877   3.293  1.1792 -0.6779 -0.6605
   87WAT      O  471   1.621   4.994   4.814 -0.6819 -0.1316 -0.1752
   87WAT     H1  472   1.683   5.067   4.812 -2.1108  1.1151 -1.7712
   87WAT     H2  473   1.544   5.026   4.767 -1.7354 -2.3502 -0.1080
   88WAT      O  474   4.895   5.020   2.697  0.0500 -0.3328 -0.0790
   88WAT     H1  475   4.978   5.048   2.734 -0.1504  1.7329 -1.1006
   88WAT     H2  476   4.836   5.013   2.772  1.1941 -2.2776  0.7161
   89WAT      O  477   1.520   2.738   2.998 -0.1184  0.0287 -0.4263
   89WAT     H1  478   1.456   2.682   2.954  0.1864 -1.4125  0.9013
   89WAT     H2  479   1.513   2.714   3.091  3.1133 -1.0093 -0.3587
   90WAT      O  480   2.995   0.002   1.300 -0.3434  0.1665  0.3987
   90WAT     H1  481   2.958  -0.015   1.213 -1.2735 -0.6778  0.9445
   90WAT     H2  482   2.972   0.093   1.318 -1.0446  0.0470  0.1668
   91WAT      O  483   2.761   1.758   5.014  0.3075  0.7110  0.0905
   91WAT     H1  484   2.720   1.809   5.084  1.8913  2.0706  0.1037
   91WAT     H2  485   2.732   1.800   4.933  1.7482  1.8250  0.1059
   92WAT      O  486   1.708   3.819   3.880 -0.4556  0.6359  0.2879
   92WAT     H1  487   1.670   3.863   3.804 -1.1440  0.1615  0.3448
   92WAT     H2  488   1.797   3.798   3.854 -0.7257  0.3600 -0.4343
   93WAT      O  489   1.793   0.059   4.356 -0.6311  0.0911  0.7795
   93WAT     H1  490   1.717   0.111   4.331 -0.4957  0.1400  0.4658
   93WAT     H2  491   1.866   0.098   4.308 -0.6714 -0.9128 -0.1512
   94WAT      O  492   3.653   3.661   4.648 -0.0012  0.2591 -0.0023
   94WAT     H1  493   3.645   3.634   4.556  1.8548  0.3336 -0.2100
   94WAT     H2  494   3.596   3.738   4.655 -0.9671 -0.3516 -0.8116
   95WAT      O  495   3.236   3.923   0.633  0.0900  0.0654  0.1287
   95WAT     H1  496   3.254   3.843   0.683 -1.2109 -0.4443 -0.1899
   95WAT     H2  497   3.260   3.994   0.693  2.2068 -0.5198  0.0656
   96WAT      O  498   1.226   1.271   2.948 -0.1865 -0.4381  0.0197
   96WAT     H1  499   1.249   1.301   2.860 -0.2261  0.3701  0.2819
   96WAT     H2  500   1.163   1.200   2.933 -2.1132  1.3100 -0.5842
   97WAT      O  501   2.110   3.800   4.970  0.0925 -0.0379  0.0834
   97WAT     H1  502   2.151   3.828   5.052 -2.5422  1.4692  1.0179
   97WAT     H2  503   2.092   3.882   4.924  0.2402 -0.7909 -1.3743
   98WAT      O  504   2.963   4.612   3.434 -0.1906 -0.3206  0.0950
   98WAT     H1  505   2.978   4.706   3.445  0.9528 -0.3251 -1.1844
   98WAT     H2  506   2.869   4.601   3.450 -0.6359  1.2652 -1.1143
   99WAT      O  507   4.806   3.920   3.450 -0.2357 -0.4911  0.6710
   99WAT     H1  508   4.862   3.924   3.372 -3.0126  1.2986 -1.4204
   99WAT     H2  509   4.853   3.971   3.516  2.0908 -1.8613  0.1913
  100WAT      O  510   3.609   1.157   2.678  0.3115  0.6570 -0.4636
  100WAT     H1  511   3.648   1.153   2.764 -1.0363  0.0477  0.1539
  100WAT     H2  512   3.609   1.250   2.655 -0.9203  1.0579  0.9980
  101WAT      O  513   1.596   4.494   2.258  0.1509 -0.1946  0.6320
  101WAT     H1  514   1.684   4.520   2.229 -0.0025  0.2707  0.5750
  101WAT     H2  515   1.573   4.421   2.201  0.4498 -0.2361  0.5601
  102WAT      O  516   3.849   4.090   2.289  0.0690  0.3286  0.2791
  102WAT     H1  517   3.847   4.184   2.271 -0.4006 -0.0239 -1.7098
  102WAT     H2  518   3.911   4.054   2.227 -0.4531 -0.7974  0.3790
  103WAT      O  519   1.906   5.486   2.955  0.0739 -0.2573  0.0629
  103WAT     H1  520   1.881   5.446   2.871  1.2108  0.5733 -0.7047
  103WAT     H2  521   1.968   5.555   2.931  0.0939  0.2848  1.5642
  104WAT      O  522   1.858   5.593   3.826  0.0393 -0.0154 -0.6942
  104WAT     H1  523   1.815   5.670   3.788 -1.4344 -0.6303 -0.3521
  104WAT     H2  524   1.945   5.593   3.787  0.8724  2.9926  0.8633
  105WAT      O  525   1.634   3.617   2.404  0.2633  0.4417  0.6676
  105WAT     H1  526   1.640   3.588   2.313 -1.3045 -1.1797  1.0145
  105WAT     H2  527   1.583   3.697   2.400 -3.1828 -1.5614  0.3054
  106WAT      O  528   2.189   0.947   5.439  0.0286 -0.8696 -0.2296
  106WAT     H1  529   2.116   0.971   5.496  0.1597 -1.0806  0.0248
  106WAT     H2  530   2.260   1.007   5.464 -0.0301 -0.7135 -0.4271
  107WAT      O  531   2.533   4.824   2.135  0.0648  0.1179 -0.3572
  107WAT     H1  532   2.559   4.901   2.084 -0.3309  0.7409  0.3794
  107WAT     H2  533   2.546   4.849   2.226 -4.9020  1.2345  0.3067
  108WAT      O  534   1.200   2.903   5.359 -0.0424 -0.2847 -0.0935
  108WAT     H1  535   1.242   2.819   5.379 -1.7092 -1.3817 -0.9442
  108WAT     H2  536   1.265   2.951   5.309  0.7774 -1.2763 -0.0106
  109WAT      O  537   3.909   0.144   4.265 -0.1034  0.0359 -0.3777
  109WAT     H1  538   3.901   0.056   4.227  2.3056 -0.0036 -0.9401
  109WAT     H2  539   3.936   0.129   4.356 -0.3059  0.1899 -0.2914
  110WAT      O  540   3.054   0.832   0.127  0.4526 -0.1555  0.1463
  110WAT     H1  541   3.075   0.739   0.128  1.1891  0.0161  1.0588
  110WAT     H2  542   3.085   0.865   0.211  1.5720  1.2200 -0.7739
  111WAT      O  543   3.353   5.247   4.846 -0.0390  0.3372  0.2644
  111WAT     H1  544   3.335   5.334   4.810  1.0001  0.1256 -0.8461
  111WAT     H2  545   3.449   5.239   4.843 -0.1423 -1.0547 -0.2146
  112WAT      O  546   4.420   2.751   3.608  0.0593 -0.1530 -0.5957
  112WAT     H1  547   4.368   2.697   3.547  0.5293 -0.7886 -0.4496
  112WAT     H2  548   4.467   2.812   3.551  1.7205 -1.7794 -1.0660
  113WAT      O  549   4.275   2.777   4.078  0.1990 -0.0585  0.3095
  113WAT     H1  550   4.245   2.699   4.033 -0.6852  1.7715 -2.5889
  113WAT     H2  551   4.251   2.763   4.169 -0.8914 -2.6703 -0.2860
  114WAT      O  552   1.148   4.023   2.089  0.6289 -0.1079  0.2630
  114WAT     H1  553   1.232   3.987   2.059  1.2599  0.4233  1.3407
  114WAT     H2  554   1.134   4.100   2.035 -0.0365 -1.1273 -1.0947
  115WAT      O  555   3.401   3.590  -0.014  0.2505 -0.5177 -0.4622
  115WAT     H1  556   3.355   3.636   0.056  0.9372  0.1001 -0.4063
  115WAT     H2  557   3.346   3.514  -0.034 -1.9012  1.3000 -1.8703
  116WAT      O  558   4.388   3.774   3.923 -0.3940  0.4366  0.5148
  116WAT     H1  559   4.377   3.710   3.852 -0.4987  0.3970  0.5666
  116WAT     H2  560   4.351   3.855   3.888 -1.9416  0.0209  1.1123
  117WAT      O  561   0.051   2.242   4.000  0.5004 -0.4291  0.0164
  117WAT     H1  562   0.010   2.306   3.940  2.1292  1.0065  0.3596
  117WAT     H2  563  -0.023   2.208   4.052 -0.9255 -1.5430 -2.5619
  118WAT      O  564   0.945   0.983   2.024  0.5286  0.3291 -0.0886
  118WAT     H1  565   0.910   0.948   1.942  2.3910  1.5395 -1.4810
  118WAT     H2  566   0.867   1.015   2.071 -0.5615 -0.0758 -1.5337
  119WAT      O  567   3.885   5.515   4.915  0.0226  0.2478  0.2077
  119WAT     H1  568   3.923   5.511   4.828  0.8936  0.8614  0.5494
  119WAT     H2  569   3.852   5.427   4.931  0.9369 -0.1948 -0.2692
  120WAT      O  570   3.752   5.584   5.547 -0.6093 -0.2148 -0.4023
  120WAT     H1  571   3.767   5.523   5.619 -0.0971 -0.2978 -0.5762
  120WAT     H2  572   3.694   5.651   5.584  1.0536  0.7121  0.6377
  121WAT      O  573   4.912   2.679   4.246  0.7300 -0.2610  0.0294
  121WAT     H1  574   4.835   2.719   4.205  0.9753 -1.5899 -1.8306
  121WAT     H2  575   4.887   2.589   4.262  1.7983 -0.6435 -0.3547
  122WAT      O  576   4.575   0.752   3.580  0.3974 -1.0026 -0.6780
  122WAT     H1  577   4.601   0.817   3.515  2.1571 -1.8956 -0.9389
  122WAT     H2  578   4.655   0.702   3.597  0.1262 -0.5988  2.4509
  123WAT      O  579   3.237   0.946   2.249 -0.0388  0.5268  0.2475
  123WAT     H1  580   3.226   1.022   2.306  0.7926 -0.1035  1.2973
  123WAT     H2  581   3.158   0.945   2.194 -1.2147  0.7996  1.8507
  124WAT      O  582   3.392   4.788   2.986 -0.3823 -0.0028  0.4461
  124WAT     H1  583   3.354   4.712   2.942  0.9018 -0.5261  0.2139
  124WAT     H2  584   3.370   4.774   3.079 -1.2881  0.0374  0.2529
  125WAT      O  585   4.680   0.311   3.838  0.2363  0.5288 -0.4955
  125WAT     H1  586   4.597   0.349   3.867  0.0978  1.1202 -1.6259
  125WAT     H2  587   4.663   0.281   3.749  0.5065 -1.7169  0.1562
  126WAT      O  588   4.962   1.903   4.268 -0.5872  0.6990 -0.2197
  126WAT     H1  589   5.014   1.836   4.226 -1.0018  0.6123 -0.6042
  126WAT     H2  590   4.924   1.954   4.196 -1.0729  0.7251  0.0450
  127WAT      O  591   3.626   4.325   3.642 -0.4487 -0.0768  0.4690
  127WAT     H1  592   3.637   4.236   3.675 -1.1142 -0.5696 -0.5845
  127WAT     H2  593   3.655   4.321   3.551 -0.4028  0.8102  0.4320
  128WAT      O  594   2.619   4.404   4.570  0.2797 -0.7208 -0.3279
  128WAT     H1  595   2.661   4.439   4.649  1.1647  0.6334 -1.3610
  128WAT     H2  596   2.691   4.382   4.512 -0.3907 -0.5642 -1.2404
  129WAT      O  597   3.615   0.686   4.667 -0.6871  0.5632 -0.3576
  129WAT     H1  598   3.552   0.708   4.735 -0.3991 -0.7976  0.3780
  129WAT     H2  599   3.564   0.642   4.599 -0.7992  1.0004 -0.5630
  130WAT      O  600   2.741   2.892   4.613 -0.2163 -0.0231 -0.4692
  130WAT     H1  601   2.765   2.985   4.602 -4.1133  0.8957 -3.4768
  130WAT     H2  602   2.795   2.846   4.549 -1.1943  0.9039 -2.0319
  131WAT      O  603   2.869   2.300   1.173  0.5102  0.1486  0.1294
  131WAT     H1  604   2.901   2.385   1.143 -1.5450  0.3756 -1.6822
  131WAT     H2  605   2.813   2.320   1.248  1.0838  0.2132  0.5502
  132WAT      O  606   2.708   4.537   4.058  0.4608 -0.0779  0.1237
  132WAT     H1  607   2.654   4.464   4.089 -0.3897  0.8340  0.8850
  132WAT     H2  608   2.645   4.599   4.021  0.7730  1.6181  2.2534
  133WAT      O  609   4.166   3.279   3.575  0.2921 -0.5679  0.0607
  133WAT     H1  610   4.116   3.312   3.501 -0.1279  1.1321  1.0628
  133WAT     H2  611   4.132   3.190   3.589 -1.4872  0.0441 -0.1369
  134WAT      O  612  -0.009   1.207   4.473  0.5236 -0.4926  0.0549
  134WAT     H1  613   0.084   1.207   4.451  0.9076  0.4416  1.5239
  134WAT     H2  614  -0.047   1.138   4.418  1.7479  0.2732 -1.8285
  135WAT      O  615   3.799   1.117   3.234 -0.1748  0.5936 -0.3218
  135WAT     H1  616   3.742   1.054   3.278 -0.5318  0.7972 -0.4917
  135WAT     H2  617   3.758   1.202   3.251  0.5169  0.8276  0.2494
  136WAT      O  618   4.212   3.753   4.247 -0.7058 -0.3240 -0.7076
  136WAT     H1  619   4.254   3.703   4.317 -0.3111  0.9148 -0.0271
  136WAT     H2  620   4.283   3.802   4.205 -0.9752 -0.8560 -1.8267
  137WAT      O  621   4.056   0.203   2.316 -0.2764  0.1100  0.5020
  137WAT     H1  622   3.976   0.175   2.272 -0.4204  2.2089 -0.7530
  137WAT     H2  623   4.050   0.299   2.317  2.0590  0.3151  0.6745
  138WAT      O  624   4.313   0.132   2.227  0.1383  0.1604  0.7889
  138WAT     H1  625   4.250   0.174   2.286  1.3900  1.4399  1.2879
  138WAT     H2  626   4.306   0.180   2.145  0.5752  0.4259  0.9029
  139WAT      O  627   4.505   0.680   4.329  0.1127 -0.5956 -0.6654
  139WAT     H1  628   4.496   0.712   4.239  0.5601 -0.9607 -0.8438
  139WAT     H2  629   4.466   0.593   4.328  0.9263 -0.9732 -0.7337
  140WAT      O  630   3.553   5.416   0.128 -0.1406  0.8553  0.7953
  140WAT     H1  631   3.500   5.338   0.145 -0.3945  0.7074 -0.6002
  140WAT     H2  632   3.560   5.459   0.213 -0.6079 -0.3072  1.4397
  141WAT      O  633   4.676   4.972   4.949 -0.0394 -0.2084  0.3772
  141WAT     H1  634   4.702   4.886   4.917  1.6480  0.7406 -0.9970
  141WAT     H2  635   4.754   5.006   4.993 -0.3071  1.0394 -0.0655
  142WAT      O  636   3.459   0.547   4.466  0.2973  0.1402 -0.4444
  142WAT     H1  637   3.474   0.471   4.410 -1.2656 -0.3590 -0.2356
  142WAT     H2  638   3.495   0.620   4.417  0.4413 -0.5189 -1.3471
  143WAT      O  639   3.394   0.778   4.816 -0.6751 -0.3355 -0.3750
  143WAT     H1  640   3.303   0.798   4.796 -0.1237  0.6283 -2.1170
  143WAT     H2  641   3.403   0.800   4.909 -1.8703  0.9148 -0.5186
  144WAT      O  642   4.190   5.433   4.244 -0.2220  0.0726  0.0096
  144WAT     H1  643   4.263   5.385   4.206  0.5136 -0.1057  1.5800
  144WAT     H2  644   4.189   5.516   4.197 -0.7775 -0.9736 -1.9243
  145WAT      O  645   3.404   3.588   4.981 -0.2897  0.3100 -0.2793
  145WAT     H1  646   3.420   3.562   4.890 -0.5794  0.6450 -0.4322
  145WAT     H2  647   3.448   3.673   4.989 -1.4057  0.9356 -0.5198
  146WAT      O  648   1.532   5.579   1.663  0.1428 -0.1416 -0.0834
  146WAT     H1  649   1.563   5.561   1.751 -1.7970  0.5283  0.7923
  146WAT     H2  650   1.475   5.505   1.641  3.7593 -2.5038 -2.5425
  147WAT      O  651   2.685   5.423   4.837 -0.6572  0.1339  0.5537
  147WAT     H1  652   2.739   5.483   4.888  0.1406 -0.0792 -0.0129
  147WAT     H2  653   2.722   5.427   4.749 -0.3643 -1.4202  0.5746
  148WAT      O  654   2.866   5.038   5.278  0.2770  0.0929  0.3898
  148WAT     H1  655   2.832   4.959   5.318 -2.5882 -0.1136 -2.1121
  148WAT     H2  656   2.959   5.019   5.262 -0.7506 -3.8826 -2.3565
  149WAT      O  657   4.913   5.163   1.934  0.0100  0.2728  0.4488
  149WAT     H1  658   4.978   5.225   1.900  0.7019  0.0077  1.2347
  149WAT     H2  659   4.959   5.117   2.004 -1.0897  0.1885  1.1366
  150WAT      O  660   3.721   3.108   4.724 -0.1931 -0.0325  0.3207
  150WAT     H1  661   3.674   3.079   4.646  0.4057 -0.0004 -0.0637
  150WAT     H2  662   3.689   3.052   4.794  0.7572 -1.4700 -0.3482
  151WAT      O  663   3.198   5.004   5.270  0.1280 -0.7710 -0.0824
  151WAT     H1  664   3.185   5.072   5.204 -2.4492  0.5702  1.6064
  151WAT     H2  665   3.275   5.032   5.319  1.5056 -1.2931 -1.8426
  152WAT      O  666   2.622   4.672   3.104 -0.0062 -0.9339 -0.3972
  152WAT     H1  667   2.570   4.716   3.172 -2.6900 -2.0465 -1.5658
  152WAT     H2  668   2.618   4.580   3.127 -0.3236 -1.2460 -1.6208
  153WAT      O  669   3.732   3.306   2.630 -0.3188 -0.1218  0.3145
  153WAT     H1  670   3.788   3.365   2.580 -1.1970  1.2145  0.8505
  153WAT     H2  671   3.754   3.322   2.721 -0.8363 -0.3444  0.4847
  154WAT      O  672   2.319   4.060   3.311  0.5506 -0.0949 -0.6959
  154WAT     H1  673   2.310   3.984   3.368  1.1469  0.0691 -0.3773
  154WAT     H2  674   2.349   4.130   3.369 -0.8491  0.6308 -0.7984
  155WAT      O  675   1.332   1.794   4.618  0.2337 -0.3296  0.0106
  155WAT     H1  676   1.260   1.747   4.577  0.8840 -0.1314 -1.4335
  155WAT     H2  677   1.408   1.736   4.606  0.4898 -0.1385  0.6868
  156WAT      O  678   4.923   3.822   3.224  0.2962  0.1482 -0.1114
  156WAT     H1  679   5.010   3.855   3.244  0.5540 -0.1497 -0.7318
  156WAT     H2  680   4.929   3.788   3.135  0.3929 -2.7231  0.8679
  157WAT      O  681   3.630   4.808   2.496  0.2786 -0.2613  0.0251
  157WAT     H1  682   3.556   4.837   2.548  0.1589  0.4531 -0.5237
  157WAT     H2  683   3.700   4.870   2.517  0.2308  0.0353 -0.6350
  158WAT      O  684   3.151   4.050   3.530 -0.5284  0.1246  0.4376
  158WAT     H1  685   3.064   4.015   3.510 -0.0351 -1.5953  1.0498
  158WAT     H2  686   3.140   4.145   3.532 -2.1610 -0.0208 -0.4846
  159WAT      O  687   2.841   5.068   3.888 -0.0904  0.1446  0.4212
  159WAT     H1  688   2.775   5.120   3.843 -0.8080 -1.5514 -0.5809
  159WAT     H2  689   2.830   4.980   3.853  2.5026 -0.2679  0.4637
  160WAT      O  690   2.291   1.067   2.505 -0.5837 -0.3010 -0.6180
  160WAT     H1  691   2.319   1.149   2.548  0.4246 -0.0363 -1.7418
  160WAT     H2  692   2.338   1.066   2.422  0.8662 -2.9094  0.1021
  161WAT      O  693   2.055   0.189   3.156  0.4654  0.4835  0.3260
  161WAT     H1  694   2.083   0.120   3.215  2.4042  0.5654 -0.4388
  161WAT     H2  695   2.017   0.256   3.213  1.1594  0.0188  1.3540
  162WAT      O  696   3.969   4.622   2.899 -0.8950 -0.8565  0.1679
  162WAT     H1  697   3.953   4.715   2.885 -2.1344 -1.0439  0.3020
  162WAT     H2  698   4.059   4.609   2.869 -0.5269  0.4802  0.6330
  163WAT      O  699   1.731   4.643   2.596 -0.6250  0.1542 -0.4924
  163WAT     H1  700   1.805   4.648   2.536  0.8603  1.0766  1.2819
  163WAT     H2  701   1.703   4.552   2.592  2.2265 -0.8920  0.4812
  164WAT      O  702   3.604   4.878   0.892  0.2977  0.8347 -0.1360
  164WAT     H1  703   3.614   4.941   0.964  0.6789 -1.5568  2.0244
  164WAT     H2  704   3.510   4.871   0.879  0.2090  0.8833  0.4839
  165WAT      O  705   2.696   3.185   4.947 -0.4724  0.2590  0.5022
  165WAT     H1  706   2.727   3.258   5.000  2.0591  1.7236 -2.6906
  165WAT     H2  707   2.763   3.118   4.957 -0.7369 -0.0400  0.2850
  166WAT      O  708   2.976   5.393   2.101  0.0816  0.1027 -0.0552
  166WAT     H1  709   2.916   5.411   2.029 -0.9900 -2.4542  0.1058
  166WAT     H2  710   2.951   5.455   2.169 -0.0917  1.3258 -1.1867
  167WAT      O  711   0.122   4.695   3.877 -0.2475  0.0199 -0.0637
  167WAT     H1  712   0.182   4.655   3.939  0.0942  1.5742  0.6636
  167WAT     H2  713   0.123   4.637   3.801  1.1228 -0.6925  0.4733
  168WAT      O  714   2.397   0.736   0.941  0.5591 -0.0454  0.5079
  168WAT     H1  715   2.309   0.752   0.974  0.1670 -0.8526 -0.1060
  168WAT     H2  716   2.411   0.803   0.874  0.9087  0.8697  1.4809
  169WAT      O  717   2.741   0.946   3.869  0.0437  0.0452 -0.1208
  169WAT     H1  718   2.784   0.871   3.827 -0.9118 -1.0039  0.7275
  169WAT     H2  719   2.719   0.915   3.957 -1.6939  0.8283 -0.2543
  170WAT      O  720   3.490   4.411   2.618 -0.1625 -0.0359 -0.1014
  170WAT     H1  721   3.424   4.480   2.606  0.1724  0.1423 -1.0331
  170WAT     H2  722   3.566   4.456   2.654 -0.5167 -0.2313  0.9178
  171WAT      O  723   1.462   5.473   3.593  0.8457 -0.3221 -0.6860
  171WAT     H1  724   1.379   5.473   3.545 -0.1054 -1.6658  0.8272
  171WAT     H2  725   1.517   5.410   3.547 -0.0844 -1.6592 -0.0397
  172WAT      O  726   4.124   5.507   3.058 -0.1012  0.4028  0.1195
  172WAT     H1  727   4.207   5.495   3.104  2.0170  1.9065 -2.9944
  172WAT     H2  728   4.138   5.466   2.973 -2.7862  0.2666 -0.3402
  173WAT      O  729   1.190   3.669   1.439 -0.4933  0.2805 -0.0627
  173WAT     H1  730   1.165   3.760   1.424  1.6709  0.9568  0.1569
  173WAT     H2  731   1.111   3.629   1.476 -2.1004  1.5500 -1.9363
  174WAT      O  732   4.399   4.608   3.033 -0.2913  0.2222 -0.2306
  174WAT     H1  733   4.394   4.698   3.067  0.0225  1.2973 -2.7520
  174WAT     H2  734   4.333   4.605   2.964 -0.5688 -1.6559  0.0677
  175WAT      O  735   0.571   1.064   3.902 -0.3989 -0.9662 -0.2672
  175WAT     H1  736   0.495   1.099   3.948 -0.9753  1.6495 -2.9264
  175WAT     H2  737   0.541   0.980   3.867 -0.7329 -1.7975  1.8132
  176WAT      O  738   3.736   0.407   2.119 -0.1139 -0.0838  0.4197
  176WAT     H1  739   3.811   0.438   2.068 -0.7328  0.4459 -0.1970
  176WAT     H2  740   3.751   0.313   2.128 -0.7222 -0.5012 -2.0824
  177WAT      O  741   4.546   3.819   3.062 -0.5791  0.2033 -0.3784
  177WAT     H1  742   4.633   3.781   3.058 -0.1495  1.1920 -0.8174
  177WAT     H2  743   4.520   3.811   3.154  0.1364  0.2481 -0.1676
  178WAT      O  744   2.118   4.362   3.625  0.3878 -0.2455 -0.7294
  178WAT     H1  745   2.064   4.411   3.563  0.2620 -0.0983 -0.5025
  178WAT     H2  746   2.130   4.421   3.699  2.0314  0.2738 -1.3599
  179WAT      O  747   1.083   0.585   3.817 -0.2318  0.2489 -0.4903
  179WAT     H1  748   1.121   0.630   3.893 -0.0265  0.5367 -0.7595
  179WAT     H2  749   1.117   0.496   3.824 -1.2097 -0.0704  0.4368
  180WAT      O  750   1.114   3.414   4.716 -0.2835 -0.2040  0.4499
  180WAT     H1  751   1.112   3.432   4.810  0.1624 -0.9220  0.6057
  180WAT     H2  752   1.202   3.380   4.700 -0.9657 -1.9039  0.1327
  181WAT      O  753   2.798   5.042   2.547 -0.3901 -0.0388 -0.3687
  181WAT     H1  754   2.847   5.110   2.592  1.0966 -0.1037 -1.7979
  181WAT     H2  755   2.810   4.964   2.601  0.2721  0.1733 -0.2061
  182WAT      O  756   3.136   0.655   2.619  0.2507 -0.1135 -0.0313
  182WAT     H1  757   3.134   0.569   2.577 -2.3381 -1.9956  3.4241
  182WAT     H2  758   3.196   0.645   2.692 -0.6276  0.7443  0.8410
  183WAT      O  759   3.680   0.150   3.321  0.6981 -0.1301  0.2021
  183WAT     H1  760   3.622   0.161   3.245  1.8474 -1.0224 -0.8551
  183WAT     H2  761   3.626   0.104   3.385 -0.0825  0.0001 -0.3358
  184WAT      O  762   0.911   3.580   3.090  0.5046 -0.1246 -0.5709
  184WAT     H1  763   0.985   3.631   3.123 -0.3133  0.8260 -0.1387
  184WAT     H2  764   0.858   3.563   3.168  1.1663 -2.3898 -0.5600
  185WAT      O  765   3.830   3.350   1.915 -0.0623  0.2521 -0.1321
  185WAT     H1  766   3.892   3.291   1.873 -0.1507 -0.4307  0.6688
  185WAT     H2  767   3.875   3.382   1.993 -0.3126  0.6163 -0.1299
  186WAT      O  768   3.305   2.697   4.096  0.3709  0.3840  0.1114
  186WAT     H1  769   3.283   2.661   4.011  1.9256 -0.3218 -0.0243
  186WAT     H2  770   3.220   2.712   4.139 -0.4849  1.8199 -1.9566
  187WAT      O  771   0.557   3.485   3.859  0.0877 -0.3506  0.2535
  187WAT     H1  772   0.474   3.509   3.818 -0.0166 -1.1673 -0.0440
  187WAT     H2  773   0.619   3.482   3.786  0.7373  1.6897  0.6702
  188WAT      O  774   4.030   4.128   3.069  0.1671 -0.7215 -0.5859
  188WAT     H1  775   4.035   4.221   3.048  1.3262 -1.0183 -1.7601
  188WAT     H2  776   4.119   4.104   3.092 -0.4349 -1.1942  1.4704
  189WAT      O  777   0.606   5.331   4.351 -0.6602  0.4518  0.0337
  189WAT     H1  778   0.597   5.284   4.268  2.6624 -0.8652  0.2883
  189WAT     H2  779   0.521   5.319   4.394 -1.5570 -1.1394 -1.9972
  190WAT      O  780   2.777   1.656   4.053 -0.5833  0.2508  0.3142
  190WAT     H1  781   2.811   1.613   3.975  1.2351  2.8851 -0.4586
  190WAT     H2  782   2.855   1.682   4.102 -1.5437  2.5457  0.7456
  191WAT      O  783   1.791   0.219   1.825 -0.2897  0.5057  0.2704
  191WAT     H1  784   1.747   0.293   1.783 -0.2698  0.5636  0.3510
  191WAT     H2  785   1.884   0.237   1.814 -0.2836  0.2717 -0.0955
  192WAT      O  786   0.127   3.555   3.502  0.3807  0.5138  0.2445
  192WAT     H1  787   0.087   3.620   3.561  1.1732  0.5791  0.7169
  192WAT     H2  788   0.212   3.592   3.479  1.7868 -1.2668  2.2126
  193WAT      O  789   1.325   5.110   4.152  0.5927 -0.3533 -0.1007
  193WAT     H1  790   1.302   5.132   4.242 -1.0220  1.4821 -0.8981
  193WAT     H2  791   1.270   5.034   4.131  0.8025 -0.6373  0.3494
  194WAT      O  792   0.914   3.650   1.527 -0.0087  0.5276 -0.1135
  194WAT     H1  793   0.818   3.647   1.528 -0.0090  0.6173  0.0436
  194WAT     H2  794   0.940   3.608   1.608  0.1122 -0.5746 -0.6976
  195WAT      O  795   2.177   3.742   4.433  0.0647  0.1832 -0.5174
  195WAT     H1  796   2.160   3.697   4.350 -1.5749  0.3019 -0.2810
  195WAT     H2  797   2.101   3.799   4.446  0.1329 -0.0495  1.2109
  196WAT      O  798   2.442   0.160   1.685  0.3737 -0.3447 -0.0816
  196WAT     H1  799   2.441   0.074   1.643 -1.6221 -0.4705  0.1044
  196WAT     H2  800   2.460   0.141   1.777 -0.8861 -0.6941  0.1174
  197WAT      O  801   3.745   0.469   1.415  0.1717  0.3896 -0.0246
  197WAT     H1  802   3.753   0.404   1.345  2.9729  0.5177  0.0954
  197WAT     H2  803   3.703   0.544   1.372 -0.1896 -0.3198 -0.9656
  198WAT      O  804   3.664   3.738   3.602 -0.1997 -0.2617 -0.4069
  198WAT     H1  805   3.662   3.799   3.676 -0.4118 -0.9303  0.1480
  198WAT     H2  806   3.721   3.780   3.538 -1.7176  1.3668 -0.7771
  199WAT      O  807   0.582   4.210   1.622  0.1944 -0.1578 -0.1639
  199WAT     H1  808   0.665   4.171   1.593  1.2421  0.9767  1.1655
  199WAT     H2  809   0.608   4.285   1.674 -1.6004 -0.9947  2.1127
  200WAT      O  810   2.065   5.280   5.751 -0.5402  0.4603 -0.3476
  200WAT     H1  811   2.151   5.247   5.726 -1.1823 -1.2958 -0.3633
  200WAT     H2  812   2.044   5.344   5.683  0.7741  1.0219 -0.2729
  201WAT      O  813   1.631   1.081   2.718  0.3537 -0.4978  1.3664
  201WAT     H1  814   1.568   1.017   2.751 -0.1429 -0.9043 -0.2762
  201WAT     H2  815   1.716   1.050   2.749  0.1383 -2.0645  0.5129
  202WAT      O  816   3.010   4.178   3.158  0.1240 -0.1934  0.4391
  202WAT     H1  817   3.078   4.154   3.222  0.8265  0.2229 -0.1418
  202WAT     H2  818   2.957   4.243   3.204  1.3947  1.0663  0.1745
  203WAT      O  819   3.026   1.452   1.030  0.3206 -0.6248 -0.3109
  203WAT     H1  820   3.031   1.357   1.045 -1.8911 -0.3760  2.7829
  203WAT     H2  821   3.056   1.491   1.111 -0.2503  1.3289 -0.9860
  204WAT      O  822   2.108   5.616   2.404 -0.5681 -0.6061 -0.2906
  204WAT     H1  823   2.045   5.576   2.343  1.1474 -0.5010 -2.2823
  204WAT     H2  824   2.056   5.675   2.458 -2.4483 -1.9611 -0.5161
  205WAT      O  825   2.202   2.793   5.315  0.6252  0.2482  0.7275
  205WAT     H1  826   2.126   2.768   5.263  0.8474 -0.4825  0.7429
  205WAT     H2  827   2.268   2.726   5.296 -0.1488 -1.6350  3.9460
  206WAT      O  828   4.791   1.291   3.669  0.0855  0.0006  0.0033
  206WAT     H1  829   4.712   1.328   3.628 -1.0091  0.2940  2.2305
  206WAT     H2  830   4.854   1.363   3.669 -0.8077  0.8262  1.1011
  207WAT      O  831   4.136   1.588   3.920  0.0907  0.0715  0.0458
  207WAT     H1  832   4.225   1.588   3.955 -0.4965  2.1962  1.7140
  207WAT     H2  833   4.082   1.620   3.992 -1.6625  1.3714 -1.7484
  208WAT      O  834   3.651   3.941   2.372  0.3150  0.4999 -0.0726
  208WAT     H1  835   3.718   3.991   2.325 -0.7314 -0.6193 -3.0312
  208WAT     H2  836   3.689   3.854   2.382 -0.1184  0.2692 -0.4067
  209WAT      O  837   1.247   5.525   3.364 -0.3180 -0.7226 -0.1339
  209WAT     H1  838   1.232   5.430   3.365  1.9039 -1.1187  0.6653
  209WAT     H2  839   1.310   5.538   3.293 -1.0631  0.2614 -0.6306
  210WAT      O  840   2.078   1.403   0.997  0.6846  0.1219  0.1484
  210WAT     H1  841   2.077   1.308   1.004  0.5641 -0.0094 -1.2708
  210WAT     H2  842   2.169   1.428   1.013  0.6329 -0.1860  0.9385
  211WAT      O  843   4.851   0.033   2.870 -0.3069  0.0428  0.0543
  211WAT     H1  844   4.869  -0.043   2.814  1.5348 -1.1705  2.1396
  211WAT     H2  845   4.760   0.019   2.899 -0.7208 -0.1771 -1.2612
  212WAT      O  846   0.448   3.272   3.360 -0.6444  0.1797  0.0103
  212WAT     H1  847   0.505   3.239   3.290  1.1762  1.0097  1.0260
  212WAT     H2  848   0.454   3.367   3.354  0.0721  0.2854  1.6348
  213WAT      O  849   1.005  -0.002   3.349  0.3703 -0.4715 -0.5208
  213WAT     H1  850   1.097  -0.028   3.349  1.1416  1.9518  0.4901
  213WAT     H2  851   0.995   0.050   3.429 -2.0662 -1.1775 -0.2797
  214WAT      O  852   2.034   3.589   1.063  0.1291 -0.3436 -0.4717
  214WAT     H1  853   2.065   3.625   1.146 -1.7735  1.4115 -0.4235
  214WAT     H2  854   2.060   3.653   0.997 -1.8029  0.3722 -0.6252
  215WAT      O  855   3.340   5.301   1.550 -0.0377 -0.0537 -0.3040
  215WAT     H1  856   3.296   5.356   1.485  0.9046  1.1564  0.0620
  215WAT     H2  857   3.321   5.211   1.522 -0.6591  0.4500 -1.5509
  216WAT      O  858   1.318   5.650   5.175  0.4527 -0.3135 -0.4120
  216WAT     H1  859   1.351   5.585   5.114 -0.1326 -2.0612  1.0260
  216WAT     H2  860   1.315   5.604   5.259  1.1941  1.9655  0.9452
  217WAT      O  861   4.655   4.083   4.204 -0.4332  0.2846 -0.3161
  217WAT     H1  862   4.718   4.033   4.153 -2.2545 -0.3876 -2.0646
  217WAT     H2  863   4.704   4.158   4.237  1.3760 -0.4851 -1.1250
  218WAT      O  864   3.941   1.258   2.607 -0.3187  0.2690 -0.1665
  218WAT     H1  865   3.977   1.170   2.617  1.7637  0.9452 -1.2098
  218WAT     H2  866   3.927   1.289   2.696  0.1087 -0.6435  0.2292
  219WAT      O  867   4.468   4.161   4.879  0.2336 -0.1059 -0.8779
  219WAT     H1  868   4.452   4.068   4.866  0.2630 -0.2036 -0.2501
  219WAT     H2  869   4.436   4.203   4.798 -2.6669 -0.3418  0.0111
  220WAT      O  870   1.736   2.563   3.318 -0.5981  0.1114  0.2512
  220WAT     H1  871   1.775   2.646   3.290 -0.5241 -0.0506 -0.1277
  220WAT     H2  872   1.750   2.504   3.244  0.2226 -0.5209  0.8905
  221WAT      O  873   1.307   1.305   3.543 -0.4218  0.3136 -0.4190
  221WAT     H1  874   1.241   1.238   3.526 -1.1182  0.9914 -0.4323
  221WAT     H2  875   1.263   1.388   3.524  0.7860  0.7269 -1.5653
  222WAT      O  876   4.573   4.283   5.326  0.2996 -0.1160 -0.6794
  222WAT     H1  877   4.606   4.221   5.392  0.7148  0.4681 -0.3241
  222WAT     H2  878   4.595   4.369   5.362 -0.3074  0.2383 -1.1493
  223WAT      O  879   2.384   5.029   2.912 -0.3345  0.3193  0.4208
  223WAT     H1  880   2.386   5.124   2.903  0.8301  0.1997 -0.9013
  223WAT     H2  881   2.471   5.001   2.885 -1.3143 -1.2763 -1.2724
  224WAT      O  882   2.947   1.936   3.239 -0.0099  0.0280  0.7657
  224WAT     H1  883   2.891   2.005   3.274  0.4100  1.3582 -1.0071
  224WAT     H2  884   2.960   1.960   3.147  1.4040 -1.6059  0.4746
  225WAT      O  885   2.929   5.434   3.511  0.3575 -0.3745 -0.1321
  225WAT     H1  886   2.939   5.440   3.416 -0.0966 -1.4476 -0.2525
  225WAT     H2  887   2.876   5.510   3.534 -0.0116 -0.4217 -0.8085
  226WAT      O  888   4.091   5.031   3.534  0.1931 -0.0675 -0.2729
  226WAT     H1  889   4.107   4.941   3.564 -2.7163 -0.9209 -0.9466
  226WAT     H2  890   4.038   5.069   3.604 -0.3832  0.4022 -0.9592
  227WAT      O  891   4.894   4.361   2.994 -0.2097  0.5261  0.3401
  227WAT     H1  892   4.910   4.427   2.927 -0.1048 -0.0180 -0.1731
  227WAT     H2  893   4.809   4.386   3.031  0.4254  1.7146  1.0675
  228WAT      O  894   3.837   5.268   4.985  0.5123 -0.0596 -0.1332
  228WAT     H1  895   3.840   5.261   5.081 -2.3739  0.3157  0.0893
  228WAT     H2  896   3.874   5.185   4.955 -1.1136 -1.4850  1.4679
  229WAT      O  897   3.820   4.243   1.600 -1.0327 -0.1909 -0.2046
  229WAT     H1  898   3.777   4.306   1.658  1.1729  2.6250 -1.3556
  229WAT     H2  899   3.877   4.192   1.657  0.9448  2.3888  0.3181
  230WAT      O  900   4.382   2.651   2.092  0.2421 -0.1954 -0.2504
  230WAT     H1  901   4.302   2.605   2.067  1.1962 -1.9043 -0.2518
  230WAT     H2  902   4.379   2.653   2.188  0.5752 -0.9801 -0.2179
  231WAT      O  903   0.334   0.535   3.590 -0.0829 -0.3810  0.5463
  231WAT     H1  904   0.331   0.620   3.546 -0.5163 -0.7030 -0.0603
  231WAT     H2  905   0.349   0.472   3.519 -1.2569 -0.9545  0.7738
  232WAT      O  906   1.490   0.437   2.666 -0.0372 -0.2380 -0.5139
  232WAT     H1  907   1.448   0.471   2.745  0.6159  2.0573 -1.0846
  232WAT     H2  908   1.443   0.355   2.647 -2.7328  1.0409  0.1313
  233WAT      O  909   2.357   4.747   2.423 -0.2207 -0.3071 -0.1613
  233WAT     H1  910   2.300   4.773   2.495 -1.0482  1.0153 -1.2242
  233WAT     H2  911   2.300   4.751   2.346  1.4181  1.7176 -1.3683
  234WAT      O  912   1.023   5.610   4.000  0.5740  0.5116  0.3643
  234WAT     H1  913   0.988   5.521   4.009  1.8225 -0.0239  0.1984
  234WAT     H2  914   0.948   5.667   4.017 -0.0360 -0.5594  1.4743
  235WAT      O  915   2.870   0.765   3.705  0.5069 -0.0516  0.0152
  235WAT     H1  916   2.866   0.672   3.685  0.8356  0.2067 -1.3470
  235WAT     H2  917   2.961   0.789   3.693  0.1718  0.7375 -1.1100
  236WAT      O  918   2.925   5.318   2.906  0.2820  0.0647  0.2604
  236WAT     H1  919   2.914   5.257   2.979  1.8117 -0.2277  0.2727
  236WAT     H2  920   2.887   5.399   2.937  1.1947  0.0348  1.5401
  237WAT      O  921   0.577   3.238   3.600  0.2372  0.6089 -0.3033
  237WAT     H1  922   0.514   3.241   3.528 -1.8192  1.3022  1.4259
  237WAT     H2  923   0.638   3.310   3.582 -0.8778  1.4516 -0.8359
  238WAT      O  924   4.398   3.945   4.470 -0.3838 -0.7435 -0.0265
  238WAT     H1  925   4.477   3.996   4.488 -1.3729  0.1681  1.9664
  238WAT     H2  926   4.412   3.910   4.382  1.8748  0.0480 -0.0356
  239WAT      O  927   1.916   5.039   5.171  0.0040 -0.0424 -0.7158
  239WAT     H1  928   1.821   5.051   5.167 -0.2056 -0.8380  0.7767
  239WAT     H2  929   1.927   4.944   5.170  0.6978  0.0153  0.1227
  240WAT      O  930   3.996   5.159   2.697 -0.1305  0.0029 -0.2990
  240WAT     H1  931   3.960   5.186   2.781  1.3691 -0.3767  0.4797
  240WAT     H2  932   4.025   5.241   2.656 -0.4675  0.1359 -0.2828
  241WAT      O  933   4.860   2.541   3.906 -0.4584  0.7221  0.1645
  241WAT     H1  934   4.869   2.631   3.873 -0.1380  0.8416  0.5579
  241WAT     H2  935   4.820   2.552   3.992  0.4579  0.5709  0.6289
  242WAT      O  936   1.492   3.614   3.084  0.8938 -0.1195  0.2940
  242WAT     H1  937   1.537   3.587   3.164 -1.6674  1.1977  2.3487
  242WAT     H2  938   1.411   3.563   3.083  0.5615  0.3806 -1.1113
  243WAT      O  939   2.832   1.346   1.674  0.3275 -0.3862  0.1297
  243WAT     H1  940   2.808   1.392   1.755 -2.1763 -0.8962 -0.2385
  243WAT     H2  941   2.819   1.411   1.605 -0.0429 -0.7022 -0.0980
  244WAT      O  942   3.425   0.498   3.072 -0.0166 -0.5082  0.0625
  244WAT     H1  943   3.429   0.587   3.037  0.8671 -0.3848  0.4693
  244WAT     H2  944   3.464   0.443   3.004 -1.1533 -0.6883 -0.4720
  245WAT      O  945   4.193   3.325   1.813  0.0263  0.3706  0.1671
  245WAT     H1  946   4.142   3.246   1.832  0.7396  0.0728  0.9240
  245WAT     H2  947   4.282   3.293   1.798  0.2046  0.9796 -0.1036
  246WAT      O  948   1.726   4.440   3.302 -0.7576 -0.0139 -0.2923
  246WAT     H1  949   1.784   4.453   3.227  1.5439 -0.7329  1.2726
  246WAT     H2  950   1.638   4.442   3.264  0.2364  1.0832 -2.7797
  247WAT      O  951   3.441   1.591   3.350 -0.0360 -0.3856 -0.5086
  247WAT     H1  952   3.459   1.511   3.300  0.6556 -1.3813  1.2209
  247WAT     H2  953   3.460   1.566   3.441 -0.1133  1.6696  0.1114
  248WAT      O  954   2.924   2.434   2.049  0.8224 -0.1440 -0.9245
  248WAT     H1  955   2.972   2.517   2.044  0.3139  0.2419  0.1557
  248WAT     H2  956   2.972   2.384   2.115  0.3051 -0.1345 -0.5378
  249WAT      O  957   4.577  -0.007   4.132 -0.2291  0.0843  0.4242
  249WAT     H1  958   4.564   0.069   4.189  1.0564  0.5339  0.1667
  249WAT     H2  959   4.639   0.024   4.065 -0.0300 -1.0597  0.0523
  250WAT      O  960   4.486   0.845   2.282  0.3023  0.2756  0.2140
  250WAT     H1  961   4.402   0.838   2.328  0.9531 -0.2154  1.3638
  250WAT     H2  962   4.524   0.758   2.288  0.6397  0.3346 -0.8476
  251WAT      O  963   0.662   3.270   2.110 -0.6050 -0.3796  0.3503
  251WAT     H1  964   0.752   3.238   2.121 -0.4102  0.1121  0.2397
  251WAT     H2  965   0.630   3.224   2.032 -0.6150 -0.9036  0.6599
  252WAT      O  966   0.379   5.269   4.456  0.1785  0.5448  0.2816
  252WAT     H1  967   0.299   5.311   4.423  0.3595  0.8874  0.2796
  252WAT     H2  968   0.388   5.301   4.545  0.9408  1.4054 -0.0962
  253WAT      O  969   1.051   4.665   3.304  0.5052 -0.2241 -0.5827
  253WAT     H1  970   0.975   4.608   3.310 -0.8968  1.6707  0.8242
  253WAT     H2  971   1.097   4.635   3.226 -0.5744 -2.7016 -0.3596
  254WAT      O  972   4.402   5.649   3.163  0.3713  0.0510  0.4253
  254WAT     H1  973   4.366   5.577   3.216 -0.8692  1.4470  1.5666
  254WAT     H2  974   4.328   5.709   3.151  1.0834  0.6121 -1.4768
  255WAT      O  975   3.036   1.262   3.280 -0.2063  0.3073 -0.5360
  255WAT     H1  976   3.090   1.273   3.358  0.6486  3.8655 -1.4521
  255WAT     H2  977   3.100   1.250   3.209 -0.8896 -0.8907 -0.9678
  256WAT      O  978   4.883   4.163   2.243  0.0587  0.2690  0.0899
  256WAT     H1  979   4.920   4.075   2.251  0.8370  0.5137 -0.7124
  256WAT     H2  980   4.908   4.207   2.324  0.3002 -0.0198  0.1727
  257WAT      O  981   0.839   5.354   1.416  0.0589 -0.2774 -0.2960
  257WAT     H1  982   0.765   5.405   1.383 -0.0427 -0.3851 -0.2325
  257WAT     H2  983   0.896   5.343   1.340 -0.0387 -0.2827 -0.3681
  258WAT      O  984   4.472   2.762   3.898  0.1257 -0.0674 -0.4288
  258WAT     H1  985   4.415   2.794   3.968 -0.0084  0.5759 -0.8233
  258WAT     H2  986   4.412   2.743   3.826  0.4301  1.0964 -1.0258
  259WAT      O  987   0.857   4.501   3.046 -0.1430 -0.1073 -0.2391
  259WAT     H1  988   0.833   4.570   3.109  2.2287 -1.3019  2.1394
  259WAT     H2  989   0.930   4.538   2.997  1.4210 -0.9220  1.3316
  260WAT      O  990   4.191   0.449   2.589 -0.0243  0.6802 -0.1709
  260WAT     H1  991   4.238   0.532   2.593 -0.2992  1.0058 -2.6648
  260WAT     H2  992   4.261   0.383   2.585  0.2489  1.0247 -1.5546
  261WAT      O  993   1.380   3.675   3.538  0.4739  0.1853  0.8162
  261WAT     H1  994   1.352   3.594   3.495 -0.5997 -0.0890  1.9514
  261WAT     H2  995   1.445   3.712   3.479 -0.2161 -0.6628 -0.5441
  262WAT      O  996   2.019   1.909   0.615  0.3091 -0.2055  0.2665
  262WAT     H1  997   1.969   1.990   0.611  0.8481  0.3558  3.1796
  262WAT     H2  998   1.978   1.853   0.548 -2.5302  1.1370  0.7118
  263WAT      O  999   3.162   2.729   3.366 -0.5470 -0.2661 -0.3057
  263WAT     H1 1000   3.200   2.646   3.339 -0.2380  0.0018 -0.7074
  263WAT     H2 1001   3.189   2.791   3.298  0.2295  0.4261  0.5944
  264WAT      O 1002   3.361   0.723   4.149  0.2127 -0.1707  0.5169
  264WAT     H1 1003   3.441   0.713   4.200  2.0087 -0.9671 -2.2585
  264WAT     H2 1004   3.352   0.641   4.102 -2.4667 -0.2149  0.9514
  265WAT      O 1005   2.802   0.106   3.926  0.2755  0.2066  0.0864
  265WAT     H1 1006   2.804   0.199   3.949 -1.2865  0.6222 -1.2286
  265WAT     H2 1007   2.713   0.091   3.895  1.0301 -1.2395 -1.5912
  266WAT      O 1008   4.233   1.249   4.143 -0.4621  0.8589 -0.1311
  266WAT     H1 1009   4.281   1.170   4.120 -1.8247 -0.5726  1.6402
  266WAT     H2 1010   4.150   1.242   4.094  0.0655  2.0829 -1.2684
  267WAT      O 1011   0.268   2.326   2.695  0.1004 -0.1844 -0.4535
  267WAT     H1 1012   0.189   2.319   2.641  0.1431 -0.4490 -0.4834
  267WAT     H2 1013   0.327   2.382   2.644 -0.5968  1.1800  0.2042
  268WAT      O 1014   2.600   0.152   2.738  0.5273  0.1719  0.1439
  268WAT     H1 1015   2.579   0.236   2.698 -2.7536 -0.1664  0.8502
  268WAT     H2 1016   2.684   0.167   2.782  1.2321  2.2979 -1.7140
  269WAT      O 1017   3.479   0.500   2.001 -0.4576 -0.0022  0.0724
  269WAT     H1 1018   3.507   0.416   2.036  0.5039  0.3676  0.2136
  269WAT     H2 1019   3.482   0.560   2.075 -1.1332  0.1687 -0.0281
  270WAT      O 1020   1.431   3.065   1.150 -0.3786 -0.0723 -0.0567
  270WAT     H1 1021   1.416   3.081   1.057  1.3797 -3.0026 -0.9976
  270WAT     H2 1022   1.425   3.151   1.191 -2.9866  1.0890 -2.5561
  271WAT      O 1023   4.929   1.918   2.404 -0.0782  0.5505  0.1915
  271WAT     H1 1024   4.914   1.895   2.312  0.4209 -2.1290  0.6875
  271WAT     H2 1025   5.019   1.951   2.407  0.0734  0.1729 -0.2060
  272WAT      O 1026   3.704   4.088   3.775 -0.3536  0.3825  0.2877
  272WAT     H1 1027   3.632   4.038   3.813 -1.1601  0.7624 -0.6976
  272WAT     H2 1028   3.766   4.099   3.847 -1.4381  0.3503  1.2554
  273WAT      O 1029   2.400   1.118   2.260 -0.3365 -0.0143  0.4267
  273WAT     H1 1030   2.481   1.165   2.241  1.0138 -2.1390  0.6393
  273WAT     H2 1031   2.351   1.121   2.178  0.5614  0.1597 -0.1235
  274WAT      O 1032   3.397   4.902   5.078 -0.4684  0.7327 -0.0764
  274WAT     H1 1033   3.384   4.978   5.134  0.1724  0.2956  0.6987
  274WAT     H2 1034   3.441   4.838   5.135 -1.3984 -0.3826 -0.5720
  275WAT      O 1035   0.761   4.186   2.356 -0.1960  0.3181 -0.0856
  275WAT     H1 1036   0.717   4.252   2.409  0.0484 -0.3223  0.9500
  275WAT     H2 1037   0.705   4.176   2.279 -0.2728  1.6617 -0.2276
  276WAT      O 1038   0.635   3.389   5.205  0.1758  0.1362  0.1049
  276WAT     H1 1039   0.545   3.356   5.199 -0.2879  1.3549 -0.0148
  276WAT     H2 1040   0.631   3.475   5.164  1.2327  0.5409  0.8199
  277WAT      O 1041   2.032   0.984   5.704  0.2411  0.2857  0.1155
  277WAT     H1 1042   1.974   0.911   5.682  1.8046 -0.5617 -1.4501
  277WAT     H2 1043   2.083   0.952   5.778 -0.5690  0.6437  0.8376
  278WAT      O 1044   4.838   0.654   3.562  0.4881  0.1603 -0.2266
  278WAT     H1 1045   4.916   0.690   3.521  0.6557  1.4860  1.1737
  278WAT     H2 1046   4.873   0.599   3.633  0.1664 -0.4530 -0.5374
  279WAT      O 1047   4.467   5.456   2.478 -0.0776  0.3727  0.0040
  279WAT     H1 1048   4.406   5.490   2.413 -0.7368  2.5556  1.6374
  279WAT     H2 1049   4.543   5.515   2.472 -0.6173  1.3326  1.9027
  280WAT      O 1050   3.642   1.124   0.875 -0.4502 -0.0531  0.2588
  280WAT     H1 1051   3.663   1.036   0.844 -0.6186 -0.0731  0.2024
  280WAT     H2 1052   3.602   1.167   0.799  0.7004  0.4543 -0.0937
  281WAT      O 1053   1.920   4.412   2.723 -0.4964  0.4030 -0.0633
  281WAT     H1 1054   1.943   4.380   2.636  1.0912 -1.5529  1.0178
  281WAT     H2 1055   1.993   4.469   2.747  0.1689 -0.7824  0.8180
  282WAT      O 1056   4.112   0.039   5.295 -0.1953  0.1540 -0.1318
  282WAT     H1 1057   4.179   0.106   5.287 -0.8741  0.6798 -1.9804
  282WAT     H2 1058   4.112  -0.006   5.210 -0.8715 -1.1051  0.5008
  283WAT      O 1059   3.302   4.610   0.249 -0.3433 -0.0731  0.4745
  283WAT     H1 1060   3.374   4.596   0.188  0.9135  0.6277  1.7667
  283WAT     H2 1061   3.279   4.703   0.238 -0.8235 -0.2001  0.3431
  284WAT      O 1062   1.159   5.234   2.210  0.3399  0.2317  0.0133
  284WAT     H1 1063   1.233   5.282   2.173 -0.2561  2.3615  1.3629
  284WAT     H2 1064   1.178   5.232   2.304 -0.5120 -0.7282  0.1776
  285WAT      O 1065   1.900   2.001   5.279 -0.1397 -0.1239  0.3935
  285WAT     H1 1066   1.855   2.048   5.349  0.2825  0.1284  0.4945
  285WAT     H2 1067   1.899   2.061   5.205 -0.4528 -0.3336  0.2219
  286WAT      O 1068   0.201   4.959   4.861 -0.5547  0.5498  0.5325
  286WAT     H1 1069   0.223   5.031   4.803 -2.2397  0.7751  0.1217
  286WAT     H2 1070   0.285   4.926   4.891  0.2897  1.7226 -0.4474
  287WAT      O 1071   4.113   0.975   4.945  0.1281  0.4979  0.0015
  287WAT     H1 1072   4.033   1.022   4.969 -0.5602 -0.5576 -0.1821
  287WAT     H2 1073   4.136   1.011   4.859  0.6420  1.7898  0.6616
  288WAT      O 1074   3.388   1.899   2.338  0.2168 -0.7762  0.4106
  288WAT     H1 1075   3.442   1.977   2.333  0.7050 -1.1772 -2.3771
  288WAT     H2 1076   3.303   1.931   2.370  0.2637  1.0143 -1.0705
  289WAT      O 1077   1.172   2.439   2.798  0.0291  0.1829  0.4874
  289WAT     H1 1078   1.189   2.363   2.742  0.6958  0.5982  0.1163
  289WAT     H2 1079   1.129   2.502   2.740  0.0984  0.3473  0.6152
  290WAT      O 1080   3.745   2.116   1.798  0.1990  0.7385  0.0747
  290WAT     H1 1081   3.711   2.065   1.724 -1.1599  2.0704 -0.2639
  290WAT     H2 1082   3.835   2.084   1.809 -0.1410 -0.7300 -1.0057
  291WAT      O 1083   3.445   4.554   5.128 -0.1191 -0.5894  0.2797
  291WAT     H1 1084   3.439   4.627   5.066  2.1485  1.4801  2.3154
  291WAT     H2 1085   3.360   4.552   5.171 -0.8613 -0.4345 -1.1186
  292WAT      O 1086   4.514   5.264   1.801  0.8841 -0.1782 -0.2265
  292WAT     H1 1087   4.560   5.181   1.814  0.0400 -0.7519 -0.8336
  292WAT     H2 1088   4.429   5.239   1.764  1.2566  1.0539 -2.0519
  293WAT      O 1089   2.185   5.598   0.298  0.0629  0.4612 -0.3664
  293WAT     H1 1090   2.229   5.656   0.360 -0.4419  0.0709  0.3785
  293WAT     H2 1091   2.236   5.517   0.300 -0.8757 -0.1381  0.8059
  294WAT      O 1092   3.421   2.875   1.194 -0.4075 -0.5402  0.2090
  294WAT     H1 1093   3.349   2.812   1.186  0.2967 -1.5000  1.1780
  294WAT     H2 1094   3.480   2.852   1.123 -1.2470  0.5575 -0.8900
  295WAT      O 1095   3.114   3.976   4.597  0.3928  0.2027  0.3439
  295WAT     H1 1096   3.164   4.058   4.603  0.4803  0.2626 -1.0623
  295WAT     H2 1097   3.181   3.909   4.588  0.3508 -0.1215  2.0995
  296WAT      O 1098   4.059   2.976   2.739  0.4122  0.1325  0.2803
  296WAT     H1 1099   3.993   2.967   2.671  0.9416 -1.6698 -0.0309
  296WAT     H2 1100   4.010   2.974   2.821 -0.0750  0.6888  0.0100
  297WAT      O 1101   3.543   4.215   1.018  0.3619 -0.2311  0.2176
  297WAT     H1 1102   3.502   4.212   1.104  1.1630 -2.3487  0.5870
  297WAT     H2 1103   3.628   4.257   1.033  0.0998  0.2860  0.2643
  298WAT      O 1104   0.518   5.118   4.029 -0.3483 -0.3155  0.6686
  298WAT     H1 1105   0.485   5.198   3.990  0.7592 -0.1283  0.0856
  298WAT     H2 1106   0.452   5.051   4.007 -1.6652  0.5352  1.8016
  299WAT      O 1107   3.202   1.278   4.028  0.0458  0.3411 -0.3606
  299WAT     H1 1108   3.297   1.273   4.020 -0.1020  0.1991 -3.2652
  299WAT     H2 1109   3.174   1.331   3.953 -2.1935 -0.0024  0.1524
  300WAT      O 1110   1.744   4.074   1.612 -0.2740 -0.0514 -0.3508
  300WAT     H1 1111   1.708   3.987   1.596 -0.1476 -0.1542 -0.0788
  300WAT     H2 1112   1.832   4.071   1.575 -0.6014  0.2582 -1.1830
  301WAT      O 1113   3.986   0.402   3.985 -0.2814  0.0608 -0.2329
  301WAT     H1 1114   3.965   0.464   3.916 -1.3948 -1.0047 -0.9039
  301WAT     H2 1115   3.956   0.317   3.951  0.2558 -0.6843  1.0579
  302WAT      O 1116   1.794   1.501   4.515  0.0151 -0.0268 -0.4283
  302WAT     H1 1117   1.826   1.433   4.455  0.3935 -0.4473  0.2349
  302WAT     H2 1118   1.868   1.518   4.573 -0.5296 -0.0345  0.2810
  303WAT      O 1119   1.952   1.994   3.061  0.1618  0.2958 -0.2583
  303WAT     H1 1120   1.966   1.901   3.042 -1.9730  0.0486 -0.8356
  303WAT     H2 1121   1.858   2.006   3.055  0.4721  2.7986 -1.5635
  304WAT      O 1122   1.655   1.289   5.491  0.2877 -0.1702  0.3808
  304WAT     H1 1123   1.679   1.379   5.470  1.7687 -0.1025  2.0969
  304WAT     H2 1124   1.725   1.259   5.549 -1.6104 -1.4830  2.1227
  305WAT      O 1125   1.647   5.551   1.278  0.0554  0.0660 -0.4064
  305WAT     H1 1126   1.660   5.609   1.353 -1.1594 -0.6861  0.4207
  305WAT     H2 1127   1.658   5.463   1.313  0.0490 -0.2794 -1.2472
  306WAT      O 1128   0.451   1.952   3.535 -0.0072 -0.1623 -0.2717
  306WAT     H1 1129   0.489   2.039   3.519 -2.8668  1.3612  0.5303
  306WAT     H2 1130   0.519   1.905   3.582  1.1136  2.2190  0.6905
  307WAT      O 1131   2.077   3.669   0.520 -0.0539 -0.0531 -0.4416
  307WAT     H1 1132   2.157   3.722   0.524  0.1048 -0.3435  1.9425
  307WAT     H2 1133   2.107   3.579   0.525 -0.4068 -0.3896 -3.0648
  308WAT      O 1134   3.649   3.523   3.267 -0.8205  0.4855  0.7121
  308WAT     H1 1135   3.606   3.605   3.293 -0.7554  1.2728 -1.4616
  308WAT     H2 1136   3.601   3.495   3.189  0.7172 -0.2307 -0.0077
  309WAT      O 1137   0.025   4.747   2.774 -0.2119  0.1640  0.1960
  309WAT     H1 1138   0.030   4.705   2.859 -0.5898 -0.3804 -0.0501
  309WAT     H2 1139  -0.006   4.836   2.793  0.6483  0.3627  0.7187
  310WAT      O 1140   4.282   4.303   5.006  0.2199 -0.6774 -0.1830
  310WAT     H1 1141   4.358   4.275   4.955  0.8414  1.0215 -0.2671
  310WAT     H2 1142   4.213   4.318   4.942  0.1031 -1.3044 -0.2079
  311WAT      O 1143   3.029   3.841   0.158  0.3420 -0.1176 -0.9018
  311WAT     H1 1144   3.049   3.917   0.105 -0.3940 -0.2612 -1.3952
  311WAT     H2 1145   3.047   3.869   0.248  0.3145  0.5516 -1.1027
  312WAT      O 1146   2.910   4.767   4.988  0.5975  0.4803 -0.2092
  312WAT     H1 1147   2.945   4.680   5.006  1.4622  0.7886 -0.3655
  312WAT     H2 1148   2.983   4.827   5.007 -0.6934  1.4092  2.3371
  313WAT      O 1149   2.607   4.082   2.124 -0.3363 -0.4168  0.0871
  313WAT     H1 1150   2.587   4.104   2.033  3.3709 -0.2412 -0.8508
  313WAT     H2 1151   2.573   4.155   2.175 -2.7717 -0.6729 -1.0433
  314WAT      O 1152   3.347   5.159   2.440 -0.2272  0.0467  0.3487
  314WAT     H1 1153   3.361   5.158   2.345  0.7947 -1.8388  0.4678
  314WAT     H2 1154   3.260   5.119   2.452 -0.7032  1.0105  0.1883
  315WAT      O 1155   3.438   2.840   3.648 -0.3348  0.1686  0.0094
  315WAT     H1 1156   3.470   2.799   3.729 -1.2198  0.5496  0.5711
  315WAT     H2 1157   3.502   2.815   3.581 -0.0204 -0.8206  0.6610
  316WAT      O 1158   1.145   3.094   0.926 -0.0051  0.0054 -0.2529
  316WAT     H1 1159   1.182   3.140   1.001  0.7396 -1.1820  0.1477
  316WAT     H2 1160   1.193   3.128   0.851 -0.7692  1.2170 -0.2152
  317WAT      O 1161   1.393   1.646   1.531 -0.6269  0.2449 -0.6198
  317WAT     H1 1162   1.481   1.676   1.508 -0.9232 -0.4183 -2.8768
  317WAT     H2 1163   1.386   1.560   1.489 -1.6327 -0.6663  1.2906
  318WAT      O 1164   2.491   1.623   2.729 -0.0976 -0.0002  0.4441
  318WAT     H1 1165   2.470   1.590   2.816  0.0369 -0.7438  0.1989
  318WAT     H2 1166   2.417   1.597   2.675 -1.1044  2.1208  0.7144
  319WAT      O 1167   2.699   3.427   4.674 -0.3549  0.1842 -0.2066
  319WAT     H1 1168   2.741   3.465   4.598 -0.2755 -0.4655 -0.4988
  319WAT     H2 1169   2.608   3.413   4.647 -0.6021  0.9807  0.1995
  320WAT      O 1170   1.872   2.612   4.138  0.5438 -0.2097  0.4195
  320WAT     H1 1171   1.922   2.677   4.089  1.2484 -0.2835  1.0288
  320WAT     H2 1172   1.886   2.635   4.230  0.5857 -1.0581  0.6344
  321WAT      O 1173   3.088   1.156   0.569  0.7382 -0.0029  0.2110
  321WAT     H1 1174   3.013   1.098   0.557 -0.9419  1.8539  1.3017
  321WAT     H2 1175   3.139   1.115   0.640  0.8854 -1.3422 -0.6291
  322WAT      O 1176   4.414   3.489   2.597 -0.1184 -0.2079 -0.2257
  322WAT     H1 1177   4.410   3.395   2.583  0.6064 -0.1929 -0.6110
  322WAT     H2 1178   4.407   3.500   2.692  0.7976 -0.7203 -0.0862
  323WAT      O 1179   2.918   3.017   4.921 -0.0927  0.2162 -0.1513
  323WAT     H1 1180   2.925   3.015   5.017 -0.6171  0.6351 -0.0954
  323WAT     H2 1181   2.921   2.926   4.894  0.0295  0.0949  0.2682
  324WAT      O 1182   3.769   5.199   2.320 -0.4168  0.8137  0.2808
  324WAT     H1 1183   3.722   5.241   2.392 -1.1310  0.7215 -0.1202
  324WAT     H2 1184   3.784   5.269   2.257  1.5181  1.2245  1.1399
  325WAT      O 1185   0.287   4.556   1.894  0.5884  0.1878  0.2767
  325WAT     H1 1186   0.265   4.630   1.951  1.9864  1.2958 -0.5664
  325WAT     H2 1187   0.377   4.533   1.917 -0.2105 -2.1332  1.3938
  326WAT      O 1188   4.188   1.786   2.363  0.4815  0.6073 -0.1593
  326WAT     H1 1189   4.272   1.793   2.317 -0.1317  0.5785 -1.3219
  326WAT     H2 1190   4.128   1.838   2.310 -0.5713 -0.5743 -0.1755
  327WAT      O 1191   4.105   3.148   3.987 -0.1471  0.4382 -0.1672
  327WAT     H1 1192   4.037   3.082   3.973  1.0343 -0.5438 -1.6603
  327WAT     H2 1193   4.057   3.229   4.005 -1.6632 -0.4948  0.1794
  328WAT      O 1194   3.141   4.937   4.961  0.2671 -0.0775  0.4640
  328WAT     H1 1195   3.235   4.927   4.973 -0.0510 -0.0485  3.8988
  328WAT     H2 1196   3.121   5.024   4.995 -0.7961  0.9885 -2.5202
  329WAT      O 1197   4.915   4.479   2.684 -0.4646  0.4899 -0.0708
  329WAT     H1 1198   4.972   4.554   2.699 -0.3990  0.5957 -0.8087
  329WAT     H2 1199   4.952   4.436   2.606 -0.1230 -0.6692  0.7043
  330WAT      O 1200   0.713   4.193   4.236  0.6190 -0.1526  0.0851
  330WAT     H1 1201   0.712   4.214   4.329  1.9505  0.5900 -0.0383
  330WAT     H2 1202   0.751   4.104   4.231  0.9661 -0.0152  0.2363
  331WAT      O 1203   4.877   0.571   3.130  0.0840 -0.8194 -0.0235
  331WAT     H1 1204   4.871   0.658   3.091 -0.6727 -1.2289 -0.8514
  331WAT     H2 1205   4.806   0.569   3.195 -0.6860 -1.2273 -0.8584
  332WAT      O 1206   3.562   1.382   1.557  0.3238 -0.0107 -0.0565
  332WAT     H1 1207   3.505   1.386   1.633 -0.1186 -1.3231 -0.2933
  332WAT     H2 1208   3.643   1.341   1.589  1.2635  2.0249  0.3258
  333WAT      O 1209   4.390   0.246   2.592 -0.2651  0.1491 -0.4664
  333WAT     H1 1210   4.474   0.229   2.550 -0.0637 -1.3768  0.4626
  333WAT     H2 1211   4.401   0.212   2.681 -1.0319  2.2586  0.5028
  334WAT      O 1212   2.452   4.289   2.259 -0.2677  0.3878  0.2254
  334WAT     H1 1213   2.365   4.311   2.226 -0.1529 -0.0985 -0.3989
  334WAT     H2 1214   2.443   4.296   2.354 -0.5241  2.0670  0.1164
  335WAT      O 1215   2.643   1.371   4.556  0.2108 -0.0411 -0.0583
  335WAT     H1 1216   2.729   1.395   4.519  0.3067  0.1867  0.3135
  335WAT     H2 1217   2.646   1.404   4.646 -0.0008 -0.6533  0.1732
  336WAT      O 1218   2.076   1.905   1.329  0.7727 -0.3768  0.4028
  336WAT     H1 1219   2.059   1.905   1.235  0.7168  0.5392  0.4065
  336WAT     H2 1220   1.990   1.891   1.369  0.7078 -0.2003  0.3271
  337WAT      O 1221   1.765   4.127   5.652  0.0284  0.1223  0.3125
  337WAT     H1 1222   1.694   4.114   5.714  0.1538 -1.0933  0.2197
  337WAT     H2 1223   1.840   4.080   5.689  0.8228  1.4256  0.4374
  338WAT      O 1224   3.222   3.041   5.037 -0.5886 -0.6253 -0.3098
  338WAT     H1 1225   3.214   2.991   5.119 -1.2944  0.1619  0.1149
  338WAT     H2 1226   3.151   3.105   5.042 -0.8753 -0.8094 -1.7131
  339WAT      O 1227   0.235   4.098   1.902  0.0008 -0.2450 -0.1574
  339WAT     H1 1228   0.329   4.114   1.911  0.3273 -1.3165 -1.3116
  339WAT     H2 1229   0.227   4.002   1.907 -1.3420 -0.0899  2.4010
  340WAT      O 1230   1.346   5.276   0.637  0.7888  0.0719  0.4520
  340WAT     H1 1231   1.375   5.317   0.718  0.6031  0.3289  0.3887
  340WAT     H2 1232   1.255   5.305   0.626  0.1978 -1.4235  1.1137
  341WAT      O 1233   3.247   3.774   1.212 -0.3151 -0.1489 -0.3239
  341WAT     H1 1234   3.155   3.751   1.228 -1.0208  0.9126 -2.4168
  341WAT     H2 1235   3.270   3.724   1.133  0.5060  0.5413 -0.5390
  342WAT      O 1236   4.453   1.151   2.296 -0.0284  0.6581 -0.4047
  342WAT     H1 1237   4.481   1.066   2.262  0.9679  0.3846  1.0021
  342WAT     H2 1238   4.411   1.131   2.379  1.8103  1.6523  0.8297
  343WAT      O 1239   1.209   0.003   0.978 -0.1866  0.4244 -0.2381
  343WAT     H1 1240   1.275  -0.065   0.964  1.0856  0.8109  2.9558
  343WAT     H2 1241   1.259   0.083   0.995 -1.5732  1.4374 -0.7159
  344WAT      O 1242   2.111   5.068   2.631  0.1579  0.0793 -0.1487
  344WAT     H1 1243   2.153   5.119   2.562  2.7138 -2.0556 -0.3312
  344WAT     H2 1244   2.020   5.060   2.603  0.6354  1.0807 -2.1730
  345WAT      O 1245   0.513   0.271   3.572 -0.5303  0.3384  0.2407
  345WAT     H1 1246   0.479   0.277   3.662 -1.4099  0.4764 -0.0957
  345WAT     H2 1247   0.601   0.308   3.578  0.1369 -1.3065  1.4111
  346WAT      O 1248   1.589   3.003   0.714  0.2451 -0.4568 -0.2695
  346WAT     H1 1249   1.613   3.077   0.658  0.9356  0.2601  0.9247
  346WAT     H2 1250   1.537   2.946   0.658  1.3176 -0.0196 -1.7799
  347WAT      O 1251   4.623   1.719   4.028  0.7399  0.1424 -0.5707
  347WAT     H1 1252   4.591   1.805   4.001 -0.6531 -0.2559 -0.2448
  347WAT     H2 1253   4.696   1.701   3.968  1.4882  1.8039 -0.2382
  348WAT      O 1254   1.268   4.049   2.348  0.1229 -0.6370  0.1432
  348WAT     H1 1255   1.222   4.021   2.269 -1.9940  1.0732  0.6744
  348WAT     H2 1256   1.216   4.014   2.420 -0.6974  1.7435  0.7734
  349WAT      O 1257   0.334   0.022   3.281  0.6123 -0.0550  0.7177
  349WAT     H1 1258   0.297   0.105   3.313 -2.3316 -0.9090 -0.1020
  349WAT     H2 1259   0.383  -0.012   3.355 -1.0136  0.8527  2.3041
  350WAT      O 1260   1.986   3.656   5.532  0.5456  0.0718  0.4130
  350WAT     H1 1261   2.023   3.738   5.498  0.9725  0.3873  1.5843
  350WAT     H2 1262   1.894   3.676   5.549  0.4692  0.0841 -0.0158
  351WAT      O 1263   4.037   4.320   2.045 -0.2146  0.3674  0.2112
  351WAT     H1 1264   4.056   4.414   2.048 -0.1437  0.3341  1.2174
  351WAT     H2 1265   4.123   4.278   2.048 -0.1321  0.2688 -2.2324
  352WAT      O 1266   3.034   4.995   4.710  0.1261 -0.3604 -0.5231
  352WAT     H1 1267   3.115   5.046   4.715  0.8015 -1.4052 -0.3680
  352WAT     H2 1268   3.040   4.933   4.783 -0.5940 -0.7575 -0.7868
  353WAT      O 1269   3.153   3.302   1.081  0.4076 -0.1922  0.1791
  353WAT     H1 1270   3.142   3.315   0.987 -0.2980 -0.8372  0.1599
  353WAT     H2 1271   3.211   3.227   1.088 -0.3366 -0.7816  0.2348
  354WAT      O 1272   1.810   3.339   4.616 -0.0425  0.5929  0.0094
  354WAT     H1 1273   1.849   3.272   4.559 -1.7636  0.5479 -1.1787
  354WAT     H2 1274   1.884   3.396   4.639  1.6148 -1.9431  1.5369
  355WAT      O 1275   3.724   4.193   5.666  0.8845  0.1855 -0.1504
  355WAT     H1 1276   3.646   4.162   5.619  0.9803  0.6240 -0.6190
  355WAT     H2 1277   3.740   4.127   5.733 -0.8570  0.8869  1.0387
  356WAT      O 1278   2.856   0.611   4.498 -0.4165 -0.1701  0.0643
  356WAT     H1 1279   2.859   0.518   4.476  0.7880 -0.3712  1.0027
  356WAT     H2 1280   2.866   0.656   4.414 -0.0340 -0.8859 -0.2788
  357WAT      O 1281   2.550   5.262   2.213  0.5936 -0.3108  0.1632
  357WAT     H1 1282   2.508   5.347   2.201  0.0796 -0.5883 -0.0415
  357WAT     H2 1283   2.537   5.241   2.306  1.6153  0.2959  0.4537
  358WAT      O 1284   1.118   4.125   1.644 -0.2244 -0.2559 -0.1198
  358WAT     H1 1285   1.150   4.210   1.617 -3.0079  0.4316 -1.6546
  358WAT     H2 1286   1.070   4.141   1.726 -0.4723 -0.3872 -0.2351
  359WAT      O 1287   1.772   0.082   1.107 -0.8956 -0.0050 -0.4350
  359WAT     H1 1288   1.715   0.005   1.104 -1.8765  0.7143 -1.0713
  359WAT     H2 1289   1.754   0.129   1.025 -0.7522  1.1849  0.1832
  360WAT      O 1290   4.860   2.747   4.518  0.6096 -0.0963 -0.1350
  360WAT     H1 1291   4.874   2.713   4.429  0.1278 -0.3779 -0.1078
  360WAT     H2 1292   4.773   2.787   4.514  1.4701  1.8443 -0.3767
  361WAT      O 1293   2.688   4.447   2.544 -0.2415  0.3695 -0.2997
  361WAT     H1 1294   2.764   4.391   2.527 -0.1937  0.8508 -1.8669
  361WAT     H2 1295   2.647   4.458   2.458 -2.6166 -0.5727  0.6371
  362WAT      O 1296   3.388   1.596   1.943 -0.8086 -0.4548 -0.3126
  362WAT     H1 1297   3.408   1.503   1.928 -0.5881 -0.8911  2.2717
  362WAT     H2 1298   3.296   1.597   1.970 -0.4073 -0.1305  1.1109
  363WAT      O 1299   1.559   4.858   4.185  0.2781  0.6421  0.4767
  363WAT     H1 1300   1.570   4.827   4.275  0.9525 -0.4447  0.0289
  363WAT     H2 1301   1.487   4.922   4.191 -0.9245 -0.7317  1.4856
  364WAT      O 1302   0.389   0.215   1.744 -0.3550 -0.1501  0.0360
  364WAT     H1 1303   0.416   0.188   1.832 -2.2288  2.4622  1.5414
  364WAT     H2 1304   0.467   0.257   1.707  0.5670 -1.6183  0.2051
  365WAT      O 1305   2.578   4.711   2.565  0.1276  0.2995 -0.6885
  365WAT     H1 1306   2.596   4.620   2.586 -0.9169  0.3972  0.7796
  365WAT     H2 1307   2.498   4.708   2.513 -1.1082  0.4594  1.1095
  366WAT      O 1308   2.824   3.990   0.342 -0.2634 -0.3198 -0.2927
  366WAT     H1 1309   2.791   4.078   0.325  1.8102  0.4434 -0.6579
  366WAT     H2 1310   2.909   4.004   0.384 -0.2062 -2.1619  0.2861
  367WAT      O 1311   0.142   5.354   1.885  0.3641  0.3990  0.1467
  367WAT     H1 1312   0.090   5.421   1.930 -4.6285 -1.9647 -1.3798
  367WAT     H2 1313   0.176   5.398   1.807 -0.8379  1.6907  0.3164
  368WAT      O 1314   2.128   1.155   3.658 -1.0992  0.2514 -0.2627
  368WAT     H1 1315   2.123   1.066   3.694 -2.3367 -0.1425 -1.3255
  368WAT     H2 1316   2.199   1.197   3.707 -1.4828 -0.8391  1.2974
  369WAT      O 1317   3.636   2.775   2.188  0.0934  0.0775 -0.1390
  369WAT     H1 1318   3.698   2.739   2.125  1.0062  1.3681 -0.0146
  369WAT     H2 1319   3.653   2.869   2.189  0.3274  0.0897  2.2275
  370WAT      O 1320   3.139   0.417   2.504  0.0751  0.7753  0.6122
  370WAT     H1 1321   3.164   0.439   2.415  3.2900  0.4664  1.3187
  370WAT     H2 1322   3.164   0.325   2.515 -2.2504  0.1362  1.2598
  371WAT      O 1323   1.558   3.582   5.328  0.7240 -0.1423 -0.1844
  371WAT     H1 1324   1.540   3.666   5.286 -1.3800 -0.2471  0.4161
  371WAT     H2 1325   1.534   3.516   5.263 -1.4452 -0.2864  0.6847
  372WAT      O 1326   2.235   4.296   0.752 -0.1490  0.5771  0.1067
  372WAT     H1 1327   2.327   4.287   0.778 -0.0139 -0.5944 -0.6904
  372WAT     H2 1328   2.234   4.270   0.659 -1.5053 -0.7957  0.4693
  373WAT      O 1329   1.136   4.620   2.073 -0.5131  0.4030  0.4578
  373WAT     H1 1330   1.184   4.556   2.020  1.0868  0.6405  1.5541
  373WAT     H2 1331   1.084   4.568   2.134  0.0381  0.1326  0.7007
  374WAT      O 1332   0.066   2.981   3.819  0.3529 -0.5465 -0.5784
  374WAT     H1 1333   0.159   2.993   3.841  0.1059  0.2729  0.0514
  374WAT     H2 1334   0.042   3.061   3.772 -0.2540 -0.3633  0.0273
  375WAT      O 1335   1.890   1.991   2.371 -0.0000 -0.2894  0.0845
  375WAT     H1 1336   1.953   1.920   2.360 -1.5445 -1.5166 -1.4183
  375WAT     H2 1337   1.903   2.021   2.460  2.0741 -1.1005  0.1076
  376WAT      O 1338   0.667   4.243   4.514  0.2630  0.0941  0.1559
  376WAT     H1 1339   0.679   4.286   4.599 -0.2025  1.0348 -0.2335
  376WAT     H2 1340   0.579   4.205   4.519 -0.0391  0.7391 -0.1421
  377WAT      O 1341   1.745   2.622   4.590  0.0935  0.5548 -0.1664
  377WAT     H1 1342   1.652   2.603   4.576  0.1434  0.3147 -0.1718
  377WAT     H2 1343   1.750   2.718   4.588 -0.2611  0.5964  0.5065
  378WAT      O 1344   4.459   4.153   2.875  0.0588 -0.3091 -0.6817
  378WAT     H1 1345   4.525   4.136   2.943 -0.8899 -0.4216  0.2375
  378WAT     H2 1346   4.497   4.115   2.795  2.2594  1.9136 -0.8073
  379WAT      O 1347   2.175   5.462   1.556 -0.2823  0.2102 -0.0775
  379WAT     H1 1348   2.254   5.409   1.572 -1.2590 -1.4222 -0.3763
  379WAT     H2 1349   2.128   5.460   1.639 -0.9458 -0.5279 -0.4543
  380WAT      O 1350   2.606   5.275   0.818 -0.1276  0.3322 -0.1436
  380WAT     H1 1351   2.520   5.284   0.777  0.1971  0.3732 -0.8272
  380WAT     H2 1352   2.658   5.228   0.754  0.7663  1.5306 -0.3435
  381WAT      O 1353   4.475   4.802   1.901 -0.5013 -0.1627 -0.1902
  381WAT     H1 1354   4.562   4.796   1.941 -1.6583 -3.0228  2.2175
  381WAT     H2 1355   4.480   4.746   1.824  0.9433  3.2974 -2.9297
  382WAT      O 1356   2.192   1.779   2.450  0.4968  0.0613 -0.0081
  382WAT     H1 1357   2.100   1.766   2.427 -0.3736  1.6203  2.2244
  382WAT     H2 1358   2.218   1.856   2.399  0.5038 -0.1927 -0.4000
  383WAT      O 1359   1.365   1.533   4.321 -0.0649  0.3837 -0.5721
  383WAT     H1 1360   1.293   1.470   4.324 -1.7614  2.2105 -0.5981
  383WAT     H2 1361   1.394   1.531   4.230  0.8554 -1.3012 -0.2824
  384WAT      O 1362   4.931   5.537   1.961  0.1385  0.1554  0.4313
  384WAT     H1 1363   4.888   5.601   1.905 -0.7756 -1.3557 -0.7007
  384WAT     H2 1364   4.859   5.486   1.998  0.8430 -0.3793  1.0885
  385WAT      O 1365   0.654   5.607   4.829 -0.5296  0.0130 -0.0739
  385WAT     H1 1366   0.634   5.686   4.780 -1.8472  0.6508  1.4174
  385WAT     H2 1367   0.725   5.633   4.889  0.2635 -0.4473 -0.7821
  386WAT      O 1368   4.855   2.121   3.569  0.8282  0.1751 -0.1428
  386WAT     H1 1369   4.942   2.135   3.532  0.6122  1.5090 -0.2216
  386WAT     H2 1370   4.842   2.195   3.628  0.4585 -0.9817  1.2817
  387WAT      O 1371   3.154   0.581   1.984 -0.0418 -0.0794 -0.1059
  387WAT     H1 1372   3.211   0.619   1.917  0.2587 -2.3549 -1.2396
  387WAT     H2 1373   3.065   0.600   1.953  0.0637 -2.0924 -1.8715
  388WAT      O 1374   2.473   4.585   0.481  0.2540  0.2516 -0.5597
  388WAT     H1 1375   2.408   4.590   0.551  0.7977  1.1331 -0.1139
  388WAT     H2 1376   2.421   4.565   0.403 -0.4895  0.3806 -0.1093
  389WAT      O 1377   1.675   3.930   0.795 -0.6140 -0.5726  0.5961
  389WAT     H1 1378   1.615   3.861   0.764 -1.6518  0.6436 -0.2250
  389WAT     H2 1379   1.761   3.889   0.793 -1.4481 -2.7007  2.7119
  390WAT      O 1380   2.886   4.119   2.270  0.1083  0.3991 -0.3932
  390WAT     H1 1381   2.828   4.053   2.308 -0.3751  1.5822  1.0489
  390WAT     H2 1382   2.847   4.140   2.186 -1.5979  1.1547  0.5433
  391WAT      O 1383   4.113   2.836   3.557 -0.5464  0.1809 -0.1418
  391WAT     H1 1384   4.149   2.761   3.603 -0.6337  1.6312  2.4320
  391WAT     H2 1385   4.172   2.909   3.578 -0.2847  0.8501 -2.8074
  392WAT      O 1386   4.464   5.370   3.821  0.2611 -0.0353  0.0066
  392WAT     H1 1387   4.449   5.347   3.729  0.0352 -0.7544  0.2201
  392WAT     H2 1388   4.433   5.460   3.828 -1.3540 -0.5351 -0.2387
  393WAT      O 1389   1.241   4.421   0.011 -0.7135 -0.0710  0.7200
  393WAT     H1 1390   1.283   4.450   0.092 -0.0146 -0.2664  0.4358
  393WAT     H2 1391   1.314   4.405  -0.049 -1.1276 -1.4997  0.5718
  394WAT      O 1392   3.090   5.117   1.636 -0.5641  0.1728 -0.3334
  394WAT     H1 1393   3.109   5.104   1.543  2.9555  1.4901  0.0611
  394WAT     H2 1394   3.106   5.031   1.676  2.5220  0.5921 -0.4336
  395WAT      O 1395   4.230   4.704   4.395 -0.0784 -0.1446 -0.9235
  395WAT     H1 1396   4.223   4.795   4.426 -1.3809 -0.2393 -0.8676
  395WAT     H2 1397   4.272   4.657   4.466 -0.5717  0.1817 -0.4051
  396WAT      O 1398   2.403   1.334   0.465  0.6132 -0.1505 -0.3799
  396WAT     H1 1399   2.486   1.291   0.486  0.2971 -1.3246 -1.4084
  396WAT     H2 1400   2.354   1.268   0.417 -1.2081  0.2982  0.7899
  397WAT      O 1401   2.692   3.403   0.724 -0.6987 -0.2665 -0.5095
  397WAT     H1 1402   2.608   3.413   0.769 -0.9126 -0.8712 -0.7735
  397WAT     H2 1403   2.671   3.355   0.645  0.2986 -2.9474  0.7381
  398WAT      O 1404   0.642   3.745   3.962  0.2720  0.3540 -0.0899
  398WAT     H1 1405   0.690   3.702   4.032  1.1041 -1.0456 -1.4579
  398WAT     H2 1406   0.596   3.674   3.917  1.1633  0.9167 -2.0140
  399WAT      O 1407   2.863   3.937   4.671 -0.3782  0.9247 -0.3958
  399WAT     H1 1408   2.818   4.019   4.689  1.1955  1.4061  1.8536
  399WAT     H2 1409   2.955   3.962   4.658  0.1021 -0.4250  0.1210
  400WAT      O 1410   1.079   4.774   5.624 -0.6488  0.3750  0.0559
  400WAT     H1 1411   1.017   4.778   5.551 -0.3475 -0.0144 -0.2279
  400WAT     H2 1412   1.161   4.808   5.587 -0.3863 -0.2141  0.0941
  401WAT      O 1413   2.589   0.327   1.507  0.2219 -0.1059  0.0070
  401WAT     H1 1414   2.508   0.333   1.457 -0.1569  0.0821  0.6215
  401WAT     H2 1415   2.578   0.251   1.563  0.4498 -0.0519  0.1291
  402WAT      O 1416   2.780   0.192   5.655 -0.8519  0.3788 -0.2757
  402WAT     H1 1417   2.761   0.203   5.748  0.0064 -0.6595  0.0474
  402WAT     H2 1418   2.800   0.280   5.623 -0.1532  0.6067  0.7563
  403WAT      O 1419   3.050   3.659   5.446 -0.2117  0.2090  0.2739
  403WAT     H1 1420   3.107   3.699   5.511  0.1550 -0.7988  0.6022
  403WAT     H2 1421   3.022   3.576   5.486  0.7105 -0.8553 -1.1653
  404WAT      O 1422   2.882   4.464   5.382  0.0740  0.7368 -0.2063
  404WAT     H1 1423   2.877   4.376   5.344 -0.8668  0.3049  0.8813
  404WAT     H2 1424   2.974   4.475   5.404  0.0136 -0.4832  0.7676
  405WAT      O 1425   3.202   4.791   2.309  0.6403  0.0386 -0.1644
  405WAT     H1 1426   3.201   4.883   2.336  0.8376 -0.0935  0.2984
  405WAT     H2 1427   3.120   4.780   2.260  1.1860  0.7592 -1.2643
  406WAT      O 1428   0.416   5.304   2.163 -0.4143 -0.2692  0.4430
  406WAT     H1 1429   0.419   5.289   2.068  0.2335 -1.1670  0.5975
  406WAT     H2 1430   0.322   5.313   2.182 -0.6696 -1.5398 -0.0729
  407WAT      O 1431   4.317   3.099   3.274  0.4190 -0.0366  0.0724
  407WAT     H1 1432   4.341   3.029   3.213 -0.0256 -0.2034  0.0852
  407WAT     H2 1433   4.222   3.105   3.268  0.4783  0.7480 -0.1139
  408WAT      O 1434   2.470   3.964   5.666  0.0132 -0.5080  0.4020
  408WAT     H1 1435   2.532   3.978   5.594  3.3975 -2.4724  2.6728
  408WAT     H2 1436   2.481   4.041   5.722  1.7605 -1.5732  1.6129
  409WAT      O 1437   0.780   0.108   3.978 -0.1826 -0.7781  0.1125
  409WAT     H1 1438   0.760   0.182   3.921  1.5026  0.1931  0.6885
  409WAT     H2 1439   0.708   0.047   3.966 -0.3321 -0.2017 -2.3626
  410WAT      O 1440   4.353   4.638   5.194  0.0277  0.2670 -0.5315
  410WAT     H1 1441   4.367   4.725   5.156  1.9623  1.0320  1.6940
  410WAT     H2 1442   4.262   4.638   5.223  0.0879  1.6965 -0.2901
  411WAT      O 1443   4.882   1.132   4.743 -0.3498 -0.6391 -0.5672
  411WAT     H1 1444   4.960   1.154   4.793 -1.2868  0.8029  0.3506
  411WAT     H2 1445   4.898   1.169   4.656  0.7008 -1.9158 -0.9392
  412WAT      O 1446   2.243   0.438   0.273  0.1123  0.1046  0.1290
  412WAT     H1 1447   2.264   0.391   0.192  0.4666 -1.9812  1.3732
  412WAT     H2 1448   2.147   0.438   0.276  0.0643  1.0920 -0.7600
  413WAT      O 1449   2.195   5.110   0.453  0.2181  0.1018  0.5065
  413WAT     H1 1450   2.154   5.050   0.516 -0.9688 -1.0856 -1.2869
  413WAT     H2 1451   2.168   5.076   0.367  1.6625  1.7221 -0.6536
  414WAT      O 1452   3.438   2.595   5.539 -0.0974 -0.0800 -0.5608
  414WAT     H1 1453   3.397   2.676   5.571 -0.1834 -1.5533  3.6510
  414WAT     H2 1454   3.366   2.533   5.532  0.5323 -0.9754  0.6636
  415WAT      O 1455   3.677   1.330   3.487  0.2420 -0.4177  0.0137
  415WAT     H1 1456   3.652   1.345   3.396  0.1889 -1.3864 -0.1313
  415WAT     H2 1457   3.750   1.268   3.482  2.3762  1.8737  0.4453
  416WAT      O 1458   2.616   1.078   4.740 -0.0456  0.3814 -0.2300
  416WAT     H1 1459   2.584   1.079   4.831  0.2077  0.6657 -0.1438
  416WAT     H2 1460   2.548   1.031   4.692  0.8740 -1.8842  0.4967
  417WAT      O 1461   1.395   4.119   1.779 -0.4154  0.1631 -0.0233
  417WAT     H1 1462   1.331   4.070   1.726  0.6688  0.0650 -1.3121
  417WAT     H2 1463   1.479   4.099   1.738  0.3921  0.6707  1.3425
  418WAT      O 1464   4.537   2.676   3.310 -1.0712  0.5932 -0.6725
  418WAT     H1 1465   4.569   2.612   3.374 -2.8428 -0.3843 -0.7343
  418WAT     H2 1466   4.556   2.761   3.352  1.1491  0.1009 -0.5210
  419WAT      O 1467   2.633   2.419   5.433 -0.1632 -0.6103  0.1269
  419WAT     H1 1468   2.640   2.497   5.377 -2.1032 -1.1880 -1.0107
  419WAT     H2 1469   2.611   2.348   5.372 -2.4273 -1.2541  1.5590
  420WAT      O 1470   3.750   0.370   4.244 -0.2624  0.2128  0.3407
  420WAT     H1 1471   3.790   0.455   4.264 -0.8692  1.0813 -1.7875
  420WAT     H2 1472   3.822   0.307   4.249  1.1772  1.5186 -2.0380
  421WAT      O 1473   1.930   4.314   0.501 -0.5086 -0.5704  0.2774
  421WAT     H1 1474   1.834   4.316   0.502 -0.5472  2.7613  0.8183
  421WAT     H2 1475   1.953   4.369   0.426  0.8776  1.5245  2.1250
  422WAT      O 1476   1.010   2.550   3.625  0.8095  0.1597 -0.5276
  422WAT     H1 1477   1.002   2.593   3.540  0.3241  0.3687 -0.3776
  422WAT     H2 1478   1.062   2.610   3.678 -2.2200  2.0094  0.6045
  423WAT      O 1479   4.730   3.969   3.839  0.1778 -0.2887 -0.0500
  423WAT     H1 1480   4.684   4.053   3.837  2.7200  1.2345  0.8965
  423WAT     H2 1481   4.688   3.921   3.910  0.1388  1.1153  0.9098
  424WAT      O 1482   3.772   1.505   3.094  0.0169 -0.5161  0.1277
  424WAT     H1 1483   3.733   1.434   3.144  0.1685  0.2784  1.4288
  424WAT     H2 1484   3.853   1.526   3.140  0.9057 -0.6916 -1.2887
  425WAT      O 1485   0.299   2.729   2.744 -0.1570  0.0901 -0.1744
  425WAT     H1 1486   0.393   2.711   2.746 -0.1583  0.0986  0.0762
  425WAT     H2 1487   0.261   2.668   2.808  0.0783  2.2868  2.2537
  426WAT      O 1488   0.493   4.796   4.266 -0.0096 -0.0640 -0.0518
  426WAT     H1 1489   0.459   4.883   4.287  0.2365  0.2948 -1.0945
  426WAT     H2 1490   0.499   4.795   4.171  0.0418 -1.2115 -0.0471
  427WAT      O 1491   0.395   2.469   3.269 -0.6113  0.1384 -0.3796
  427WAT     H1 1492   0.425   2.556   3.240 -0.6045 -0.1272 -1.1838
  427WAT     H2 1493   0.304   2.484   3.296 -0.3576  0.5594  0.2674
  428WAT      O 1494   1.848   2.508   1.220 -0.3784  0.0265 -0.0986
  428WAT     H1 1495   1.862   2.542   1.309 -0.1140  1.4516 -0.6691
  428WAT     H2 1496   1.894   2.424   1.220  1.0855  0.7764  0.6220
  429WAT      O 1497   0.874   3.268   5.021  0.3529  0.4768 -0.5168
  429WAT     H1 1498   0.942   3.206   4.994  1.0186  1.4088 -1.0309
  429WAT     H2 1499   0.894   3.285   5.113  1.1458  1.1358 -0.7975
  430WAT      O 1500   4.544   1.331   2.133 -0.3546 -0.2295  0.5320
  430WAT     H1 1501   4.505   1.264   2.190 -1.8491  0.1312 -0.0327
  430WAT     H2 1502   4.508   1.312   2.047  0.2634  0.5053  0.1087
  431WAT      O 1503   4.244   3.865   1.792 -0.4038  0.3143 -0.1929
  431WAT     H1 1504   4.299   3.941   1.772 -0.8479  0.5532 -0.5133
  431WAT     H2 1505   4.260   3.848   1.885  0.3002  0.3068 -0.3079
  432WAT      O 1506   1.043   3.796   2.182 -0.3360  0.6762 -0.2864
  432WAT     H1 1507   1.095   3.868   2.146 -0.6419  0.3286 -1.4635
  432WAT     H2 1508   0.953   3.828   2.180 -0.3408  0.7446  0.4441
  433WAT      O 1509   4.252   4.418   2.291 -0.0529 -0.1340  0.3607
  433WAT     H1 1510   4.244   4.483   2.221  1.6503  1.2446  1.3842
  433WAT     H2 1511   4.182   4.441   2.353 -0.3023 -0.1334  0.0849
  434WAT      O 1512   1.951   5.334   0.520 -0.1867  0.4550 -0.0250
  434WAT     H1 1513   2.005   5.275   0.467 -1.1458 -0.1158 -0.4046
  434WAT     H2 1514   1.971   5.310   0.610  1.0673  1.0707 -0.1197
  435WAT      O 1515   0.221   5.227   4.773 -0.0147  0.0031 -0.4983
  435WAT     H1 1516   0.298   5.282   4.759 -0.7675  1.7387  1.6313
  435WAT     H2 1517   0.165   5.278   4.831 -2.1711 -1.7926 -0.8496
  436WAT      O 1518   1.660   3.053   2.766  0.3466  0.1310  0.1090
  436WAT     H1 1519   1.644   3.117   2.835  0.3437 -0.2208  0.4327
  436WAT     H2 1520   1.608   3.086   2.692 -0.6125 -0.1300  0.6396
  437WAT      O 1521   2.811   5.151   3.161  0.2074 -0.7038  0.4615
  437WAT     H1 1522   2.759   5.139   3.240 -3.0054 -0.5496 -1.4927
  437WAT     H2 1523   2.803   5.069   3.113 -0.0166  0.0564 -0.8555
  438WAT      O 1524   4.273   4.808   2.062  0.0490 -1.1709 -0.9265
  438WAT     H1 1525   4.231   4.892   2.042  0.0744 -0.5239  1.4974
  438WAT     H2 1526   4.348   4.804   2.003  1.2158  1.4791  0.2631
  439WAT      O 1527   2.586   4.172   5.825  0.1339  0.1889  0.3122
  439WAT     H1 1528   2.633   4.094   5.853 -1.2894 -0.4975  0.8875
  439WAT     H2 1529   2.649   4.220   5.771  0.1985 -2.8198 -2.6345
  440WAT      O 1530   3.784   3.776   4.137  0.4483  0.4928 -0.5657
  440WAT     H1 1531   3.847   3.729   4.191 -0.1144  0.2987 -0.0615
  440WAT     H2 1532   3.834   3.803   4.060  0.3348 -2.7927 -1.9631
  441WAT      O 1533   0.641   3.640   2.507 -0.3495  0.2429  0.3240
  441WAT     H1 1534   0.570   3.691   2.544 -0.4300  1.2887 -1.1742
  441WAT     H2 1535   0.667   3.688   2.429  0.6814 -1.1555 -0.2453
  442WAT      O 1536   0.538   4.390   2.010 -0.1491  0.3407  0.0885
  442WAT     H1 1537   0.450   4.370   2.043 -0.8121  0.0261 -1.7922
  442WAT     H2 1538   0.548   4.484   2.022 -0.6260  0.3372  0.5428
  443WAT      O 1539   1.222   2.894   4.391 -0.2877  0.9041 -0.5484
  443WAT     H1 1540   1.298   2.904   4.449 -0.2116 -1.9373  0.0306
  443WAT     H2 1541   1.250   2.932   4.308  0.9691  1.8354  0.2576
  444WAT      O 1542   4.578   2.896   3.432  0.2164 -0.2259 -0.2412
  444WAT     H1 1543   4.530   2.979   3.426 -1.4804 -0.9857  1.6450
  444WAT     H2 1544   4.649   2.914   3.494 -1.7467 -0.7629  2.3294
  445WAT      O 1545   3.220   1.469   1.249 -0.2056 -0.3804 -0.1385
  445WAT     H1 1546   3.176   1.385   1.266 -0.3018  0.0045  1.7419
  445WAT     H2 1547   3.313   1.447   1.250 -0.2503 -0.5976 -0.4988
  446WAT      O 1548   0.877   3.079   2.753  0.6387 -0.1634  0.0273
  446WAT     H1 1549   0.944   3.013   2.771  1.2649  0.9212  1.8769
  446WAT     H2 1550   0.794   3.030   2.757  1.1149 -0.9351  0.8121
  447WAT      O 1551   3.952   0.664   3.833 -0.2975  0.2633 -0.7159
  447WAT     H1 1552   3.926   0.648   3.742  0.2369  0.1673 -0.8496
  447WAT     H2 1553   4.041   0.698   3.828  0.6625 -2.0313 -0.0816
  448WAT      O 1554   0.162   5.193   3.655  0.1829  0.6041  0.2618
  448WAT     H1 1555   0.222   5.177   3.727 -0.5804  0.0008  0.7773
  448WAT     H2 1556   0.219   5.219   3.582  1.2036 -1.0987  0.3758
  449WAT      O 1557   2.111   0.023   2.932 -0.2954 -0.7609 -0.3215
  449WAT     H1 1558   2.186   0.080   2.918  0.0794 -1.6897 -2.4712
  449WAT     H2 1559   2.054   0.072   2.991  0.6036  1.2725 -1.0740
  450WAT      O 1560   3.295   1.875   5.759  0.3105 -0.7067 -0.2487
  450WAT     H1 1561   3.364   1.866   5.824 -2.0382 -0.1309  2.5383
  450WAT     H2 1562   3.220   1.828   5.797 -1.3830  0.1990 -2.2579
  451WAT      O 1563   2.908   2.016   1.136 -0.1937  0.2135 -0.4265
  451WAT     H1 1564   2.831   1.965   1.161 -0.3822 -0.1718 -1.7316
  451WAT     H2 1565   2.880   2.107   1.144 -0.2832  0.1112  0.5965
  452WAT      O 1566   3.857   0.538   4.612 -0.1443  0.4792  0.6615
  452WAT     H1 1567   3.787   0.564   4.671 -1.6248 -0.3538 -0.6426
  452WAT     H2 1568   3.914   0.483   4.666  1.3905  3.7172  2.6194
  453WAT      O 1569   1.660   2.474   0.280 -0.3007 -0.8098  0.0898
  453WAT     H1 1570   1.632   2.560   0.246  2.1419 -0.4701 -1.2915
  453WAT     H2 1571   1.661   2.485   0.375 -0.0452  0.6974 -0.0613
  454WAT      O 1572   4.931   2.628   2.878 -0.3831  0.0288 -0.0849
  454WAT     H1 1573   4.878   2.588   2.808 -1.6456 -0.1487  0.9355
  454WAT     H2 1574   4.871   2.633   2.953  0.8551  0.4857  0.8991
  455WAT      O 1575   2.775   4.543   2.878  0.2408 -0.1753  0.4048
  455WAT     H1 1576   2.817   4.479   2.936  0.0343  0.1114  0.8694
  455WAT     H2 1577   2.742   4.611   2.936  1.3435  0.8790 -0.1657
  456WAT      O 1578   2.585   1.294   2.139 -0.4111  0.2181  0.1711
  456WAT     H1 1579   2.571   1.363   2.074  1.1021 -0.1043 -0.5364
  456WAT     H2 1580   2.624   1.340   2.214  1.7523  0.0134 -0.7599
  457WAT      O 1581   2.971   3.947   5.344  0.4420 -0.3678  0.8365
  457WAT     H1 1582   2.983   3.881   5.413 -1.3213 -1.2270  0.3766
  457WAT     H2 1583   2.897   3.915   5.293 -0.6013  2.0537  0.6745
  458WAT      O 1584   0.647   1.213   3.681  0.4314  0.5966  0.6403
  458WAT     H1 1585   0.580   1.277   3.705 -0.0832  0.1841  0.3308
  458WAT     H2 1586   0.637   1.143   3.745  0.3678  0.3997  0.4163
  459WAT      O 1587   2.582   2.584   3.994 -0.6011  0.0428 -0.7405
  459WAT     H1 1588   2.647   2.653   3.982 -0.9231  0.3910 -0.4910
  459WAT     H2 1589   2.597   2.524   3.920 -0.7099  0.6847 -1.2952
  460WAT      O 1590   2.782   0.358   4.421 -0.3247 -0.5162  0.4825
  460WAT     H1 1591   2.861   0.309   4.397  0.0128  0.6304 -0.8775
  460WAT     H2 1592   2.711   0.294   4.412 -0.2195 -0.3402 -3.6130
  461WAT      O 1593   1.273   0.615   3.532 -0.0701  0.1949  0.2485
  461WAT     H1 1594   1.302   0.571   3.612 -0.8653 -0.0003  0.4420
  461WAT     H2 1595   1.228   0.546   3.483 -2.9182  1.1444  1.3558
  462WAT      O 1596   2.110   1.167   5.065  0.2592 -0.2583 -0.2358
  462WAT     H1 1597   2.022   1.204   5.072  0.9377  1.3764  0.3937
  462WAT     H2 1598   2.103   1.080   5.104 -0.7609  0.4343  1.2496
  463WAT      O 1599   4.942   4.187   4.207 -0.0042 -0.1219 -0.0118
  463WAT     H1 1600   5.017   4.226   4.253 -0.6335 -0.2917  1.1914
  463WAT     H2 1601   4.915   4.114   4.262 -1.4500  0.3253 -0.0858
  464WAT      O 1602   2.669   3.237   0.436  0.0607 -0.1331 -0.2920
  464WAT     H1 1603   2.699   3.319   0.398 -1.0944  0.1800 -0.5491
  464WAT     H2 1604   2.689   3.171   0.370 -1.2299  0.2974 -1.1359
  465WAT      O 1605   2.110   4.641   0.026  0.4701 -0.0535  0.1404
  465WAT     H1 1606   2.168   4.569   0.051  0.1008 -1.2373 -2.1229
  465WAT     H2 1607   2.022   4.608   0.048  0.4736  1.0635  2.0361
  466WAT      O 1608   1.879   1.674   3.294  0.3348  0.3227 -0.1172
  466WAT     H1 1609   1.925   1.604   3.340  1.5375  0.4983 -0.9961
  466WAT     H2 1610   1.926   1.683   3.211 -0.0215  1.8990 -0.1849
  467WAT      O 1611   0.884   0.798   4.522  0.1654  0.0401  0.3112
  467WAT     H1 1612   0.894   0.729   4.588  0.7009  0.5303  0.7564
  467WAT     H2 1613   0.907   0.756   4.439 -1.3610 -0.8146  0.2957
  468WAT      O 1614   3.949   3.526   5.178  0.1626  0.1018  0.2278
  468WAT     H1 1615   3.914   3.563   5.097 -1.0873  0.8152  1.0558
  468WAT     H2 1616   3.979   3.438   5.154 -1.0131 -0.0322 -0.8255
  469WAT      O 1617   2.070   3.527   0.223  0.3240  0.0119 -0.6069
  469WAT     H1 1618   2.097   3.436   0.234  2.7015  0.6710 -0.4920
  469WAT     H2 1619   1.975   3.522   0.206  0.1390 -2.3538  0.7438
  470WAT      O 1620   2.074   0.686   3.940  0.3287 -0.0912  0.3587
  470WAT     H1 1621   2.082   0.593   3.960  0.8341 -0.4874 -1.4517
  470WAT     H2 1622   1.987   0.710   3.971  0.4347 -1.0108  1.4152
  471WAT      O 1623   3.674   2.414   3.319 -0.6127 -0.4380  0.0842
  471WAT     H1 1624   3.591   2.373   3.297  0.4659 -2.3760 -0.6105
  471WAT     H2 1625   3.733   2.390   3.247 -0.1212  3.2856 -0.9745
  472WAT      O 1626   3.567   4.697   4.157 -0.0750  0.5609 -0.1230
  472WAT     H1 1627   3.525   4.718   4.241 -1.4945  0.4581 -0.7826
  472WAT     H2 1628   3.500   4.716   4.092  0.5400 -0.6621 -1.1429
  473WAT      O 1629   3.866   5.154   5.524  0.3180  0.3170  0.6219
  473WAT     H1 1630   3.821   5.214   5.583 -3.5378  0.1582 -1.8033
  473WAT     H2 1631   3.858   5.069   5.567 -0.4724  0.5403  0.9489
  474WAT      O 1632   3.243   2.942   5.282 -0.0319 -0.1346 -0.0986
  474WAT     H1 1633   3.273   3.012   5.340 -0.7862  0.0112  0.1173
  474WAT     H2 1634   3.315   2.878   5.284  0.4809  0.4321  0.0280
  475WAT      O 1635   4.764   5.015   2.961 -0.1833 -0.7190  0.2015
  475WAT     H1 1636   4.773   4.985   3.052 -1.0935  0.6078  0.7590
  475WAT     H2 1637   4.713   5.095   2.967  1.2078  0.3430 -1.3458
  476WAT      O 1638   0.952   1.552   3.883 -0.1921  0.2455 -0.7706
  476WAT     H1 1639   0.921   1.640   3.905 -2.2411  0.0773 -2.6018
  476WAT     H2 1640   0.906   1.494   3.944 -0.1372  0.3050 -0.6719
  477WAT      O 1641   2.169   5.421   2.582  0.4586  0.0329  0.1519
  477WAT     H1 1642   2.155   5.479   2.507 -1.2918 -0.6830 -0.1201
  477WAT     H2 1643   2.177   5.334   2.543 -0.0835 -0.2975  0.7594
  478WAT      O 1644   2.834   3.798   5.596  0.7244 -0.0633 -0.2741
  478WAT     H1 1645   2.882   3.749   5.662  1.4870  0.6371 -0.2937
  478WAT     H2 1646   2.775   3.734   5.556 -0.3348 -0.3323  1.6206
  479WAT      O 1647   2.507   2.727   4.538 -0.4573 -0.6008  0.7355
  479WAT     H1 1648   2.556   2.723   4.455 -0.7116  2.0455  0.3673
  479WAT     H2 1649   2.571   2.761   4.601 -0.5519 -1.6500  1.4218
  480WAT      O 1650   2.423   3.704   5.582  0.0436 -0.3655 -0.4181
  480WAT     H1 1651   2.418   3.707   5.487 -1.8479 -1.7278 -0.3995
  480WAT     H2 1652   2.417   3.796   5.609 -2.2460 -0.1248 -1.5447
  481WAT      O 1653   3.093   2.739   5.143  0.0410 -0.2964 -0.1720
  481WAT     H1 1654   3.133   2.793   5.210 -0.1348 -2.8300  2.1393
  481WAT     H2 1655   3.167   2.703   5.094  0.1492  2.5362 -2.3565
  482WAT      O 1656   2.094   0.134   4.664  0.1488 -0.3808  0.1656
  482WAT     H1 1657   2.120   0.085   4.742 -1.3395 -1.2846  0.1440
  482WAT     H2 1658   2.053   0.068   4.607 -1.1037  0.7219 -0.2570
  483WAT      O 1659   0.972   5.224   3.446  0.0597  0.4610 -0.2928
  483WAT     H1 1660   0.882   5.257   3.448  0.1254  0.7258 -1.2343
  483WAT     H2 1661   1.005   5.242   3.534 -0.2592  1.9397 -0.4359
  484WAT      O 1662   1.169   0.086   4.636 -0.5643  0.1800 -0.4048
  484WAT     H1 1663   1.128   0.003   4.659  0.9151 -0.7669 -1.0319
  484WAT     H2 1664   1.095   0.146   4.624 -1.5795 -0.4505  2.1030
  485WAT      O 1665   3.782   4.621   2.303 -0.4577 -0.0971  0.0089
  485WAT     H1 1666   3.800   4.670   2.222  0.6465  2.0521  1.4523
  485WAT     H2 1667   3.732   4.682   2.357  1.4197 -0.3018  2.1037
  486WAT      O 1668   3.952   2.831   2.488 -0.0021 -0.3890 -0.2025
  486WAT     H1 1669   4.013   2.879   2.431 -0.1296 -1.1011 -0.9597
  486WAT     H2 1670   3.882   2.894   2.505  0.0824 -0.1332 -0.7582
  487WAT      O 1671   3.278   2.985   4.166 -0.0167 -0.4774 -0.1142
  487WAT     H1 1672   3.373   2.988   4.180  0.0901 -1.5034 -0.5169
  487WAT     H2 1673   3.265   2.912   4.106 -1.3910 -3.0061  2.9750
  488WAT      O 1674   2.342   4.477   2.720 -0.0409  0.1907  0.1845
  488WAT     H1 1675   2.373   4.552   2.772  0.6777 -0.9845  1.5182
  488WAT     H2 1676   2.247   4.478   2.731 -0.0605  1.0087  0.0252
  489WAT      O 1677   3.432   0.903   4.542 -0.1990 -0.4246  0.1271
  489WAT     H1 1678   3.407   0.853   4.619  0.8233 -1.6897 -0.3309
  489WAT     H2 1679   3.362   0.888   4.480 -1.1410  0.7812  0.8539
  490WAT      O 1680   2.554   3.305   4.336 -0.2883 -0.6369 -1.1840
  490WAT     H1 1681   2.518   3.393   4.341  0.7578 -0.2411 -0.2099
  490WAT     H2 1682   2.566   3.290   4.242  0.2472  0.5747 -1.3289
  491WAT      O 1683   3.683   0.241   4.596 -0.3462 -0.4662 -0.2414
  491WAT     H1 1684   3.601   0.226   4.643  0.4955 -1.5436  0.9708
  491WAT     H2 1685   3.694   0.336   4.597 -2.2282 -0.1684 -1.6578
  492WAT      O 1686   3.161   5.095   0.583  0.4362 -0.4979  0.3226
  492WAT     H1 1687   3.079   5.099   0.532  0.7057  0.0537 -0.0735
  492WAT     H2 1688   3.178   5.001   0.592  1.3410 -0.6499 -2.1973
  493WAT      O 1689   4.505   2.138   2.390  0.3549 -0.0279  0.1830
  493WAT     H1 1690   4.484   2.134   2.484  0.6160 -1.4039  0.2050
  493WAT     H2 1691   4.507   2.231   2.370 -1.0371  0.2782  1.2516
  494WAT      O 1692   3.626   2.263   5.261 -0.0267  0.1509 -0.4453
  494WAT     H1 1693   3.702   2.217   5.226 -0.1385 -1.0920  0.8167
  494WAT     H2 1694   3.597   2.208   5.335 -2.2009  0.5180 -0.9426
  495WAT      O 1695   0.079   1.702   4.099 -0.9838  0.3645  0.5954
  495WAT     H1 1696   0.024   1.692   4.022 -0.5348  0.7309  0.2141
  495WAT     H2 1697   0.088   1.614   4.135 -0.3641  0.0118 -0.3675
  496WAT      O 1698   1.786   5.385   3.202 -0.0381  0.3821  0.1836
  496WAT     H1 1699   1.805   5.422   3.116  0.9802 -0.3458  0.0737
  496WAT     H2 1700   1.695   5.356   3.196  0.0163  0.3697 -0.6364
  497WAT      O 1701   3.244   1.148   3.152 -0.1163  0.1324 -0.0706
  497WAT     H1 1702   3.339   1.157   3.160 -0.1049  1.4428 -1.1590
  497WAT     H2 1703   3.231   1.072   3.094  0.1813 -1.1446  1.4875
  498WAT      O 1704   4.795   3.341   4.909  0.0606  0.7421  0.0881
  498WAT     H1 1705   4.799   3.246   4.913  0.6240  0.7843  2.2791
  498WAT     H2 1706   4.748   3.366   4.989 -1.2904  2.2720 -1.1194
  499WAT      O 1707   1.699   3.190   4.209 -0.9170 -0.4932  0.5221
  499WAT     H1 1708   1.622   3.144   4.241 -1.2190 -0.1828  0.2447
  499WAT     H2 1709   1.690   3.279   4.243 -0.8774 -0.3521  0.1688
  500WAT      O 1710   0.732   4.695   2.703  0.0643  0.0312 -0.4435
  500WAT     H1 1711   0.761   4.786   2.703 -0.4184  0.1953 -1.0735
  500WAT     H2 1712   0.681   4.687   2.622 -0.1536 -0.7149 -0.2345
  501WAT      O 1713   1.415   0.091   4.494  0.2909  0.5411  0.0335
  501WAT     H1 1714   1.321   0.107   4.498  0.7386  3.9502 -0.5227
  501WAT     H2 1715   1.447   0.109   4.583  0.4598 -0.4461  0.1815
  502WAT      O 1716   0.792   5.036   4.126  0.1546  0.1334 -0.3539
  502WAT     H1 1717   0.719   5.087   4.091 -0.3189 -0.6797 -0.5705
  502WAT     H2 1718   0.808   4.968   4.061  1.1845  0.3607 -0.3598
  503WAT      O 1719   3.956   1.445   4.238  0.2226 -0.8218 -0.4088
  503WAT     H1 1720   3.932   1.359   4.204 -0.6579 -1.2750  1.2452
  503WAT     H2 1721   3.974   1.430   4.331  3.4037  0.2009 -0.7295
  504WAT      O 1722   3.214   3.403   5.765  0.1178 -0.2189  0.0220
  504WAT     H1 1723   3.206   3.339   5.694 -0.6860 -1.1525  0.9167
  504WAT     H2 1724   3.133   3.394   5.814  0.0613  1.3899  0.2841
  505WAT      O 1725   3.149   2.524   5.508  0.1548 -0.2019  0.3434
  505WAT     H1 1726   3.200   2.481   5.439  1.3293 -0.6174  1.4140
  505WAT     H2 1727   3.164   2.617   5.494 -0.7711 -0.1988 -0.7885
  506WAT      O 1728   3.319   2.631   3.817 -0.4446  0.1845  0.5438
  506WAT     H1 1729   3.257   2.692   3.776 -0.1105  0.2362  0.1172
  506WAT     H2 1730   3.345   2.572   3.747  0.9577  0.9362  0.4162
  507WAT      O 1731   0.865   0.274   2.909 -0.3962 -0.1235 -0.0883
  507WAT     H1 1732   0.839   0.185   2.886  0.0943 -0.1839 -0.4220
  507WAT     H2 1733   0.802   0.330   2.864 -1.4607 -0.3252  1.1103
  508WAT      O 1734   4.244   1.040   3.923 -0.1928 -0.3180  0.0404
  508WAT     H1 1735   4.321   1.010   3.875 -0.1854 -0.4777  0.1517
  508WAT     H2 1736   4.196   1.093   3.860 -0.7996 -1.5111 -0.5270
  509WAT      O 1737  -0.003   1.260   3.090 -0.3342 -0.1142  0.3277
  509WAT     H1 1738   0.065   1.200   3.058  1.0057  1.6346 -0.3081
  509WAT     H2 1739  -0.049   1.288   3.011 -2.2131 -1.6610  0.7999
  510WAT      O 1740   1.234   5.252   5.363 -0.0515  0.0770  0.1325
  510WAT     H1 1741   1.195   5.294   5.286  0.7996 -2.5155 -1.8783
  510WAT     H2 1742   1.195   5.298   5.437 -2.6927  1.2511 -1.7887
  511WAT      O 1743   2.953   1.872   4.797  0.2904  0.2825 -0.2382
  511WAT     H1 1744   2.961   1.826   4.713  1.2044 -0.5033  0.2513
  511WAT     H2 1745   2.993   1.812   4.860  1.9666  1.9234  0.3542
  512WAT      O 1746   3.033   2.697   4.194  0.1801  0.4526 -0.4567
  512WAT     H1 1747   3.026   2.710   4.289 -1.2276 -2.8844  0.0478
  512WAT     H2 1748   2.971   2.759   4.157  0.9441  1.9964  0.7525
  513WAT      O 1749   1.679   4.228   0.832  0.2810  0.0171  0.4700
  513WAT     H1 1750   1.673   4.136   0.807 -1.7908  0.1419  0.3259
  513WAT     H2 1751   1.753   4.262   0.782  0.6601 -1.3964  0.0144
  514WAT      O 1752   4.174   0.997   4.659  0.1052 -0.0767 -0.2498
  514WAT     H1 1753   4.230   1.059   4.610  0.5056 -0.3523 -0.1480
  514WAT     H2 1754   4.127   0.949   4.591 -0.3171  0.4401 -0.3255
  515WAT      O 1755   4.273   1.936   3.963  0.4587 -0.1008 -0.0754
  515WAT     H1 1756   4.188   1.905   3.930  1.5454 -0.6427 -2.6142
  515WAT     H2 1757   4.329   1.939   3.886  1.9522  3.2163  0.9573
  516WAT      O 1758   2.239   2.747   0.293  0.4398  0.2655  0.5491
  516WAT     H1 1759   2.215   2.819   0.352  0.7081 -1.8007  3.4302
  516WAT     H2 1760   2.325   2.718   0.325 -0.4831 -2.4815  0.8231
  517WAT      O 1761   0.937   3.220   0.803  0.1942  0.1691  0.6912
  517WAT     H1 1762   1.003   3.176   0.857 -0.0203 -1.2923 -0.1895
  517WAT     H2 1763   0.855   3.177   0.825 -0.2917  1.2213  0.9671
  518WAT      O 1764   3.899   1.169   3.476 -0.3365  0.1909  0.2986
  518WAT     H1 1765   3.872   1.150   3.386 -1.8809  2.8289  0.0857
  518WAT     H2 1766   3.976   1.114   3.490 -1.7229 -2.4604 -1.5944
  519WAT      O 1767   2.542   2.933   2.235 -0.1122  0.2215 -0.2670
  519WAT     H1 1768   2.587   2.925   2.319  0.5380 -0.3972 -0.6666
  519WAT     H2 1769   2.550   2.846   2.195 -1.5806  0.1136 -0.3880
  520WAT      O 1770   2.482   1.184   4.451 -0.2815 -0.3179  0.1221
  520WAT     H1 1771   2.516   1.175   4.361 -0.4612  1.5454 -0.1634
  520WAT     H2 1772   2.544   1.243   4.494 -0.8638 -0.2404  0.8649
  521WAT      O 1773   3.283   5.401   5.281  0.3625  0.3475 -0.1390
  521WAT     H1 1774   3.305   5.473   5.340  3.9391 -0.4130 -0.2982
  521WAT     H2 1775   3.253   5.444   5.200 -1.6953  1.4533  1.1313
  522WAT      O 1776   4.070   3.799   3.684 -0.4196 -0.4708  0.0892
  522WAT     H1 1777   4.084   3.705   3.690  2.6829 -0.2673 -1.7479
  522WAT     H2 1778   4.043   3.815   3.594  2.8334  0.6007 -0.8380
  523WAT      O 1779   1.143   3.537   1.158  0.3167  0.4548  0.7229
  523WAT     H1 1780   1.057   3.577   1.171  0.2493 -0.0530  2.0183
  523WAT     H2 1781   1.191   3.555   1.239  1.2405  0.2535  0.2391
  524WAT      O 1782   0.039   2.043   3.156  0.5095 -0.8911  0.2217
  524WAT     H1 1783   0.127   2.069   3.185 -0.2069  0.5747  1.1793
  524WAT     H2 1784   0.027   1.956   3.193  1.8984 -1.5132 -0.6975
  525WAT      O 1785   1.520   3.640   3.999 -0.2386  0.0705  0.1500
  525WAT     H1 1786   1.469   3.644   3.918 -1.0535  0.0211  0.6486
  525WAT     H2 1787   1.547   3.731   4.015  0.3640  0.0047 -0.4373
  526WAT      O 1788   0.808   0.950   3.831 -0.4690 -0.8782  0.4753
  526WAT     H1 1789   0.763   1.026   3.869  1.0230  0.6222 -0.6428
  526WAT     H2 1790   0.773   0.875   3.879 -0.8404  0.6477  2.7134
  527WAT      O 1791   4.111   2.105   3.699 -0.4178  0.0343  0.0445
  527WAT     H1 1792   4.080   2.032   3.752  0.2261 -0.5885 -0.4172
  527WAT     H2 1793   4.056   2.103   3.621 -0.4410  0.0865  0.0593
  528WAT      O 1794   2.577   0.724   4.684 -0.1538  0.0353 -0.3796
  528WAT     H1 1795   2.552   0.711   4.776 -0.5224 -1.2502 -0.6303
  528WAT     H2 1796   2.519   0.793   4.653 -0.7359 -0.2305  0.0918
  529WAT      O 1797   4.327   0.876   3.366  0.5579 -0.7004 -0.4728
  529WAT     H1 1798   4.338   0.886   3.272 -0.3553  0.0889 -0.5031
  529WAT     H2 1799   4.301   0.784   3.377  0.3121 -0.6998 -1.0202
  530WAT      O 1800   3.913   0.154   4.717 -0.0128  0.0991  0.4198
  530WAT     H1 1801   3.933   0.242   4.748  2.4578 -0.1680 -0.2292
  530WAT     H2 1802   3.822   0.159   4.688 -0.0132  2.3591  0.6639
  531WAT      O 1803   0.487   2.204   3.939  0.2012  0.2165  0.2399
  531WAT     H1 1804   0.496   2.298   3.952  0.9791 -0.0097  1.4317
  531WAT     H2 1805   0.412   2.179   3.993 -0.7712  0.3105 -1.0021
  532WAT      O 1806   0.167   0.863   3.724 -0.0822  0.0917 -0.0577
  532WAT     H1 1807   0.191   0.782   3.769  0.5599 -1.0141 -2.2632
  532WAT     H2 1808   0.089   0.894   3.771 -0.7530 -2.1602  0.4339
  533WAT      O 1809   0.135   3.083   4.937  0.1760 -0.2250 -0.1616
  533WAT     H1 1810   0.140   3.022   4.864  3.2804 -0.1363 -0.1665
  533WAT     H2 1811   0.226   3.098   4.962 -0.6369  1.8807  1.9672
  534WAT      O 1812   3.097   2.380   4.759  0.3102 -0.0257  0.1781
  534WAT     H1 1813   3.061   2.305   4.805  1.0072 -0.1684  0.5061
  534WAT     H2 1814   3.053   2.456   4.797 -0.4180 -0.2619 -0.1776
  535WAT      O 1815   1.881   3.415   5.516  0.1659  0.1976 -0.2596
  535WAT     H1 1816   1.890   3.510   5.510 -0.0985  0.2278 -0.2255
  535WAT     H2 1817   1.912   3.383   5.432  1.2394  0.2332  0.1159
  536WAT      O 1818   1.906   3.202   0.527  0.1117 -0.1376  0.4084
  536WAT     H1 1819   1.992   3.234   0.499  0.1759 -1.4321 -1.0479
  536WAT     H2 1820   1.905   3.216   0.621  1.7578  0.2833  0.4057
  537WAT      O 1821   0.563   3.449   4.861  0.4834  0.3772 -0.2025
  537WAT     H1 1822   0.544   3.492   4.778 -0.2457 -0.8687 -0.7107
  537WAT     H2 1823   0.614   3.371   4.837 -2.0403 -1.5099  0.1651
  538WAT      O 1824   2.481   5.584   4.940  0.0233  0.1347  0.0380
  538WAT     H1 1825   2.448   5.632   4.864 -2.8266 -2.4542 -0.5401
  538WAT     H2 1826   2.564   5.547   4.911 -0.4257  0.2014 -1.3930
  539WAT      O 1827   3.187   3.768   2.832  0.0841  0.0659 -0.2751
  539WAT     H1 1828   3.255   3.737   2.892  1.0286 -0.5695 -1.6152
  539WAT     H2 1829   3.210   3.859   2.816 -2.3733  1.5145  3.2282
  540WAT      O 1830   0.927   1.106   3.242  0.6988 -0.1831  0.0665
  540WAT     H1 1831   0.843   1.060   3.243  0.0049  1.0150 -0.4660
  540WAT     H2 1832   0.919   1.173   3.309  1.0515  0.2445 -0.3116
  541WAT      O 1833   4.453   0.378   4.000 -0.2303  0.6337  0.5764
  541WAT     H1 1834   4.409   0.462   4.014  0.4632  1.6151 -2.5483
  541WAT     H2 1835   4.381   0.316   3.989 -0.7952  1.3781 -0.0514
  542WAT      O 1836   1.829   4.352   1.063  0.5230  0.1453  0.4465
  542WAT     H1 1837   1.787   4.334   0.978  0.1256 -0.7437  0.8213
  542WAT     H2 1838   1.820   4.447   1.074  1.5364  0.4541 -1.0051
  543WAT      O 1839   2.461   0.678   4.937 -0.6670 -0.6297 -0.3858
  543WAT     H1 1840   2.416   0.761   4.950 -0.8258 -0.5776 -1.1882
  543WAT     H2 1841   2.391   0.613   4.929 -0.5607 -0.7517 -0.3413
  544WAT      O 1842   1.405   3.084   0.257  0.2508  0.2839  0.0030
  544WAT     H1 1843   1.336   3.144   0.282  1.9281  2.6719 -0.7760
  544WAT     H2 1844   1.472   3.093   0.325  0.8932 -0.0552 -0.5644
  545WAT      O 1845   1.023   2.770   3.796 -0.2408  0.2238  0.7607
  545WAT     H1 1846   1.003   2.836   3.861 -1.1595 -0.2028  0.9294
  545WAT     H2 1847   0.964   2.789   3.723 -0.2791 -0.1973  0.6753
  546WAT      O 1848   3.455   4.109   5.019 -0.3816 -0.1031  0.0858
  546WAT     H1 1849   3.492   4.057   5.091 -1.0225 -0.2426  0.3197
  546WAT     H2 1850   3.388   4.052   4.981 -0.1158  0.0124 -0.5598
  547WAT      O 1851   0.454   2.740   3.303  0.1589 -0.3324  0.7006
  547WAT     H1 1852   0.416   2.809   3.249  0.3850  0.5028  1.5847
  547WAT     H2 1853   0.548   2.759   3.305  0.2820 -0.8987  0.6256
  548WAT      O 1854   4.688   1.071   3.808 -0.5105  0.1269  0.0678
  548WAT     H1 1855   4.712   1.131   3.738 -0.4485 -2.1123 -1.9941
  548WAT     H2 1856   4.593   1.077   3.813 -0.5846 -0.1816 -0.7396
  549WAT      O 1857   4.236   1.360   3.104  0.3853  0.6258 -0.2710
  549WAT     H1 1858   4.221   1.369   3.198  0.2666  0.1331 -0.2409
  549WAT     H2 1859   4.317   1.408   3.088 -0.6773  2.5235 -0.2757
  550WAT      O 1860   0.204   5.453   2.392 -0.5359  0.2819  0.0318
  550WAT     H1 1861   0.167   5.375   2.352 -0.3442  0.7029 -1.0085
  550WAT     H2 1862   0.137   5.484   2.452 -0.1233 -1.3634  1.4100
  551WAT      O 1863   3.780   3.928   4.370 -0.0297 -0.5873  0.2881
  551WAT     H1 1864   3.728   3.865   4.420  1.5078 -1.9273  0.2681
  551WAT     H2 1865   3.779   3.893   4.281 -0.3548  0.2325 -0.0460
  552WAT      O 1866   3.959   4.945   2.198  0.3240  0.2328  0.1024
  552WAT     H1 1867   4.046   4.973   2.173 -0.3725  2.1439 -0.3264
  552WAT     H2 1868   3.907   5.025   2.199 -1.8388 -1.0352 -1.3178
  553WAT      O 1869   1.350   4.998   1.208 -0.1534 -0.5508 -0.1300
  553WAT     H1 1870   1.310   4.914   1.184  0.2401 -0.7124 -0.2349
  553WAT     H2 1871   1.440   4.975   1.234 -0.1894 -0.2208  0.2988
  554WAT      O 1872   0.701   5.191   2.516 -0.0880  0.3208 -0.3078
  554WAT     H1 1873   0.757   5.115   2.530  0.6720  0.8083 -0.6360
  554WAT     H2 1874   0.686   5.193   2.421 -0.6689  0.1925 -0.2237
  555WAT      O 1875   3.435   1.791   1.747 -0.3877  0.5430  0.1278
  555WAT     H1 1876   3.400   1.712   1.787 -0.2310 -1.3813 -3.2420
  555WAT     H2 1877   3.358   1.844   1.727 -0.7953 -0.3707 -0.7535
  556WAT      O 1878   1.480   5.058   0.781 -0.0571  0.9128 -0.5647
  556WAT     H1 1879   1.461   5.083   0.872 -0.9909 -2.0215  0.1738
  556WAT     H2 1880   1.418   5.109   0.729 -0.4504  1.6425  0.5749
  557WAT      O 1881   3.486   4.572   5.836  0.3129 -0.6166  0.1117
  557WAT     H1 1882   3.485   4.562   5.741  2.1843  0.5456 -0.0876
  557WAT     H2 1883   3.536   4.497   5.868  0.8950 -0.2595  0.0444
  558WAT      O 1884   0.097   2.191   3.468  0.2587 -0.1985 -0.2612
  558WAT     H1 1885   0.171   2.212   3.525 -0.8083  3.6192  0.0443
  558WAT     H2 1886   0.136   2.153   3.390  2.3384 -0.0957  0.6515
  559WAT      O 1887   1.355   0.554   5.175  0.5085 -0.4414 -0.1421
  559WAT     H1 1888   1.344   0.649   5.174 -1.3207 -0.6219  0.0960
  559WAT     H2 1889   1.410   0.537   5.252  1.0538  0.4222 -0.3261
  560WAT      O 1890   3.336   0.444   4.103  0.0928 -0.2383 -0.2273
  560WAT     H1 1891   3.368   0.395   4.027  0.4800 -0.3657  0.0206
  560WAT     H2 1892   3.392   0.417   4.175 -0.2228 -0.0520  0.0903
  561WAT      O 1893   0.696   0.351   2.705  0.4343  0.4047 -0.2111
  561WAT     H1 1894   0.606   0.332   2.731 -0.3418  1.2841 -2.0236
  561WAT     H2 1895   0.711   0.295   2.629  1.4661  0.2021  0.1289
  562WAT      O 1896   3.377   0.265   2.332  0.3401 -0.3126  0.4745
  562WAT     H1 1897   3.383   0.269   2.236 -0.2843  1.5552  0.4647
  562WAT     H2 1898   3.287   0.239   2.349  0.7677 -1.8203  0.5924
  563WAT      O 1899   2.623   0.743   2.401 -0.4682  0.1615  0.4084
  563WAT     H1 1900   2.688   0.675   2.383  0.5343  1.1469  0.2264
  563WAT     H2 1901   2.600   0.777   2.314  0.0579  0.9881  0.5902
  564WAT      O 1902   4.309   1.719   3.163 -0.0181  0.3250  0.0914
  564WAT     H1 1903   4.339   1.723   3.253  1.8850  2.2123 -0.5333
  564WAT     H2 1904   4.233   1.777   3.160  0.1591  0.5736  0.4040
  565WAT      O 1905   4.428   2.033   2.125  0.0797  0.1080 -0.3480
  565WAT     H1 1906   4.402   1.943   2.148 -1.8785  0.6441 -0.3380
  565WAT     H2 1907   4.480   2.062   2.200 -1.3782 -0.1845  0.8365
  566WAT      O 1908   2.194   3.941   0.688 -0.0219 -0.2175 -0.1779
  566WAT     H1 1909   2.244   3.943   0.607  1.8440  0.3540  0.9461
  566WAT     H2 1910   2.116   3.994   0.669  1.3511  1.5826 -1.0000
  567WAT      O 1911   4.280   2.601   3.241  0.1957  0.2235 -0.7380
  567WAT     H1 1912   4.373   2.617   3.224 -0.0480  0.8214 -1.6237
  567WAT     H2 1913   4.278   2.522   3.294  1.2878  0.9646  0.4936
  568WAT      O 1914   4.066   1.446   3.699  0.4022  0.4986  0.0910
  568WAT     H1 1915   4.085   1.492   3.781  0.3014 -0.7378  0.8375
  568WAT     H2 1916   4.059   1.354   3.724  1.2456 -0.0334 -1.4518
  569WAT      O 1917   3.176   5.566   2.331  0.3154  0.0788  0.5591
  569WAT     H1 1918   3.083   5.581   2.313  0.1699  1.3330  2.1809
  569WAT     H2 1919   3.214   5.547   2.245 -1.2303  0.6540 -0.2896
  570WAT      O 1920   3.757   3.384   2.284  0.4178  0.2060 -0.2697
  570WAT     H1 1921   3.666   3.406   2.265  0.1229  0.0730  0.9208
  570WAT     H2 1922   3.805   3.412   2.206 -0.6133  0.4248 -0.8447
  571WAT      O 1923   3.899   0.790   3.497  0.4796 -0.4504  0.4170
  571WAT     H1 1924   3.975   0.848   3.504 -1.9507  2.9892  0.7505
  571WAT     H2 1925   3.826   0.841   3.531 -2.1774 -3.2779 -0.5427
  572WAT      O 1926   0.422   4.748   1.693 -0.5684  0.4170  0.2246
  572WAT     H1 1927   0.434   4.662   1.733  0.4989  0.6724  0.4911
  572WAT     H2 1928   0.342   4.740   1.643  0.0657 -1.0622 -0.6176
  573WAT      O 1929   3.050   1.002   1.754 -0.8096  0.7312  0.2016
  573WAT     H1 1930   3.006   1.047   1.682 -0.7348  1.1000  0.3802
  573WAT     H2 1931   3.021   1.049   1.832 -0.5010  0.6511  0.3664
  574WAT      O 1932   2.982   5.229   2.658  0.6103  0.0981 -0.2025
  574WAT     H1 1933   2.954   5.249   2.748 -1.6195  0.0827 -0.8247
  574WAT     H2 1934   3.057   5.286   2.643 -0.1079  1.4698  1.0735
  575WAT      O 1935   4.518   2.473   2.700 -0.0759 -0.6079 -0.1471
  575WAT     H1 1936   4.437   2.473   2.751 -0.5776  4.2294 -0.4435
  575WAT     H2 1937   4.490   2.496   2.611  1.4870  1.4170 -0.1984
  576WAT      O 1938   1.371   2.378   2.392 -0.1128 -0.5959 -0.2464
  576WAT     H1 1939   1.467   2.375   2.388 -0.0527 -3.3290  1.1566
  576WAT     H2 1940   1.353   2.430   2.470  0.0533  2.1817 -1.9101
  577WAT      O 1941   3.966   1.062   3.028 -0.3443 -0.6107 -0.3148
  577WAT     H1 1942   3.909   1.064   3.104  2.3943  1.5366  1.8843
  577WAT     H2 1943   4.049   1.099   3.058  1.0088  0.1543 -4.2830
  578WAT      O 1944   3.587   5.029   4.868 -0.0261 -0.2301  0.4921
  578WAT     H1 1945   3.636   4.964   4.919 -1.2094 -0.6404  1.1441
  578WAT     H2 1946   3.542   5.081   4.934  0.1809  0.6756 -0.0687
  579WAT      O 1947   1.619   5.572   2.531 -0.8175 -0.0734 -0.5591
  579WAT     H1 1948   1.561   5.589   2.605  1.6674  1.4503  1.2106
  579WAT     H2 1949   1.618   5.653   2.480  0.0476  0.1540 -0.2417
  580WAT      O 1950   0.004   3.172   4.645 -0.7570  0.1028 -0.2560
  580WAT     H1 1951   0.085   3.131   4.674 -0.9081 -0.7836 -1.0436
  580WAT     H2 1952  -0.060   3.148   4.712 -0.8656 -1.0664 -0.7445
  581WAT      O 1953   3.664   0.451   5.623  0.0965 -0.2874  0.1488
  581WAT     H1 1954   3.747   0.451   5.576 -0.2485 -1.5511 -0.5012
  581WAT     H2 1955   3.651   0.360   5.650 -2.3159 -0.7317 -2.0699
  582WAT      O 1956   3.265   2.072   3.521  0.6649  0.2311  0.3513
  582WAT     H1 1957   3.328   2.002   3.500 -1.2597 -0.9656 -2.0565
  582WAT     H2 1958   3.181   2.027   3.525 -0.4662  2.2148  0.1446
  583WAT      O 1959   2.893   2.641   2.361 -0.1733 -0.5197 -1.1441
  583WAT     H1 1960   2.983   2.642   2.327  0.7272  1.3340  1.0063
  583WAT     H2 1961   2.859   2.728   2.342 -1.6021 -1.2319 -2.0018
  584WAT      O 1962   2.590   0.125   4.347  0.4755 -0.2020  0.5345
  584WAT     H1 1963   2.510   0.174   4.328  2.5518  2.4668 -2.2486
  584WAT     H2 1964   2.583   0.046   4.293  0.0465  0.4016 -0.3107
  585WAT      O 1965   3.832   2.538   3.815  0.1113  0.1333  0.0186
  585WAT     H1 1966   3.868   2.469   3.871  0.4680  0.7029  0.5052
  585WAT     H2 1967   3.902   2.557   3.753 -0.5897 -1.0841 -1.1790
  586WAT      O 1968   4.540   1.819   3.016  0.3168 -0.0493  0.0408
  586WAT     H1 1969   4.474   1.789   3.078 -0.5802  1.7586  0.0168
  586WAT     H2 1970   4.517   1.776   2.934  0.7100 -1.3905  0.5877
  587WAT      O 1971   2.655   4.875   2.360  0.2569 -0.2306 -0.0410
  587WAT     H1 1972   2.683   4.956   2.402 -1.5121  0.0077  0.8024
  587WAT     H2 1973   2.650   4.812   2.432  1.3589 -1.0310 -0.6466
  588WAT      O 1974   0.389   1.666   3.782  0.2188  0.1320  0.4390
  588WAT     H1 1975   0.333   1.678   3.705  0.1281 -0.6379  0.3743
  588WAT     H2 1976   0.350   1.723   3.849 -0.2730  0.0823  0.2013
  589WAT      O 1977   2.681   1.398   4.064  0.6211 -0.2157 -0.5451
  589WAT     H1 1978   2.699   1.414   3.971  0.8174 -0.7018 -0.5922
  589WAT     H2 1979   2.707   1.480   4.107 -0.8269  0.5500 -1.0757
  590WAT      O 1980   0.088   5.006   2.113 -0.2884 -0.3434  0.2115
  590WAT     H1 1981   0.038   4.969   2.186 -1.2146 -0.9865 -0.7160
  590WAT     H2 1982   0.108   4.930   2.058  3.0752 -0.4079  1.2580
  591WAT      O 1983   4.555   2.744   2.843 -0.6130 -0.2625 -0.3526
  591WAT     H1 1984   4.491   2.694   2.792  1.1204 -0.3419 -2.6181
  591WAT     H2 1985   4.616   2.777   2.778  1.4058  0.1870  1.6493
  592WAT      O 1986   1.185   4.313   3.130 -0.5095 -0.1299 -0.1410
  592WAT     H1 1987   1.119   4.320   3.199 -1.4052 -0.4406 -0.9397
  592WAT     H2 1988   1.191   4.219   3.114 -0.1414 -0.0731 -0.3264
  593WAT      O 1989   1.359   5.575   2.652 -0.1926 -0.1873 -0.0423
  593WAT     H1 1990   1.277   5.593   2.606 -0.0547 -1.5598 -0.8918
  593WAT     H2 1991   1.363   5.479   2.656  1.0515 -0.1245  0.5639
  594WAT      O 1992   1.054   3.232   2.600 -0.0445  0.1484  0.4742
  594WAT     H1 1993   1.007   3.310   2.573  0.2494  0.4442  0.8022
  594WAT     H2 1994   0.993   3.187   2.660 -0.6262 -0.4223 -0.5189
  595WAT      O 1995   2.070   1.379   4.008 -0.5758  0.5228  0.3385
  595WAT     H1 1996   2.004   1.312   3.990 -0.9137  1.4768 -2.5028
  595WAT     H2 1997   2.023   1.461   3.999  0.3244  1.2021  1.5816
  596WAT      O 1998   4.209   0.897   1.714  0.2415 -0.2657  0.2223
  596WAT     H1 1999   4.300   0.929   1.709  0.4216 -0.6697  0.8200
  596WAT     H2 2000   4.207   0.820   1.657  0.1351  0.0478 -0.2037
  597WAT      O 2001   4.099   0.270   1.725  0.2445 -0.3380 -0.6651
  597WAT     H1 2002   4.089   0.183   1.687 -0.8453 -0.8090  0.6515
  597WAT     H2 2003   4.065   0.329   1.658 -1.2616 -1.1207 -0.6263
  598WAT      O 2004   2.819   0.929   4.586  0.0855  0.1467  0.1735
  598WAT     H1 2005   2.798   0.836   4.578 -3.2421  0.9189 -2.3321
  598WAT     H2 2006   2.749   0.965   4.640  0.7898  1.3605  0.3127
  599WAT      O 2007   2.519   5.225   4.157  0.3810 -0.5241 -0.5279
  599WAT     H1 2008   2.489   5.186   4.076 -1.7363  0.0435 -0.0847
  599WAT     H2 2009   2.604   5.184   4.174  0.4942 -1.2414 -2.5692
  600WAT      O 2010   4.448   1.789   2.298  0.5940  0.0554  0.1177
  600WAT     H1 2011   4.449   1.694   2.295 -0.2075  0.0632 -0.8172
  600WAT     H2 2012   4.484   1.811   2.384 -0.7989 -1.1292  1.0409
  601WAT      O 2013   3.729   4.240   2.815  0.4640  0.4269  0.2670
  601WAT     H1 2014   3.800   4.284   2.768  1.0563 -0.9205 -0.1393
  601WAT     H2 2015   3.709   4.163   2.762 -0.2527 -0.0325  1.1704
  602WAT      O 2016   1.757   3.424   2.829 -0.6100 -0.2128 -0.0572
  602WAT     H1 2017   1.690   3.376   2.879 -1.3105  0.5643 -0.2296
  602WAT     H2 2018   1.714   3.505   2.803  0.7542  0.8100  0.7622
  603WAT      O 2019   3.928   1.963   3.208  0.1361  0.4947 -0.2871
  603WAT     H1 2020   4.013   1.931   3.177  0.5908  1.8088 -0.4317
  603WAT     H2 2021   3.868   1.947   3.135 -0.0853 -1.6469  0.2727
  604WAT      O 2022   4.060   2.749   2.182 -0.0670 -0.7170 -0.4632
  604WAT     H1 2023   4.071   2.844   2.175 -2.7417 -0.2686  0.1945
  604WAT     H2 2024   4.143   2.717   2.216  1.0967  1.3029 -1.2764
  605WAT      O 2025   1.194   1.763   2.315  0.7421  0.2611 -0.0585
  605WAT     H1 2026   1.215   1.855   2.297 -2.8205  1.4688  1.0547
  605WAT     H2 2027   1.106   1.752   2.279  0.8865 -2.6278  0.2544
  606WAT      O 2028   2.342   3.844   2.752 -0.1762  0.1523 -0.2257
  606WAT     H1 2029   2.401   3.916   2.772  1.9356 -1.5210 -0.0331
  606WAT     H2 2030   2.258   3.870   2.790  1.3119  1.1549  2.6649
  607WAT      O 2031   4.293   5.494   4.526 -0.0207 -0.0729  0.7362
  607WAT     H1 2032   4.359   5.428   4.545 -0.4687 -0.4474  1.0134
  607WAT     H2 2033   4.265   5.475   4.437  0.5928  0.3957  0.4324
  608WAT      O 2034   3.266   5.251   1.124 -0.4577 -0.1563 -0.3348
  608WAT     H1 2035   3.270   5.317   1.054 -1.6450  0.2178 -0.0775
  608WAT     H2 2036   3.246   5.302   1.203  1.8863 -0.4359  0.5154
  609WAT      O 2037   3.586   3.008   4.170  0.0454  0.0136  0.4997
  609WAT     H1 2038   3.680   3.020   4.155 -0.1924 -0.3301 -1.4403
  609WAT     H2 2039   3.573   2.914   4.163 -0.7189  0.2129 -1.2261
  610WAT      O 2040   3.342   2.036   4.748  0.2634 -0.8658  0.1831
  610WAT     H1 2041   3.268   2.093   4.727 -0.5443 -1.0629  2.3448
  610WAT     H2 2042   3.408   2.095   4.783 -0.2452 -1.1086  1.6032
  611WAT      O 2043   0.349   3.752   3.538 -0.2272 -0.2312  0.3265
  611WAT     H1 2044   0.282   3.795   3.486 -0.5651 -1.0760  0.0403
  611WAT     H2 2045   0.414   3.820   3.556  0.3479 -0.0947 -1.9396
  612WAT      O 2046   0.592   1.520   3.752 -0.6499  0.4179  0.0643
  612WAT     H1 2047   0.607   1.480   3.838  2.0702  0.0545 -0.4881
  612WAT     H2 2048   0.512   1.571   3.763 -2.3005 -2.2565  1.8357
  613WAT      O 2049   4.591   2.860   4.500  0.8113 -0.0044  0.0724
  613WAT     H1 2050   4.581   2.912   4.420 -0.3361 -0.2730  0.0261
  613WAT     H2 2051   4.589   2.925   4.570  0.9152  0.1502 -0.0659
  614WAT      O 2052   3.705   3.466   4.827 -0.4767  0.4139  0.2031
  614WAT     H1 2053   3.676   3.523   4.756 -0.5707  0.8783  0.6080
  614WAT     H2 2054   3.760   3.400   4.784  0.4519  1.3804 -0.1569
  615WAT      O 2055   0.362   4.625   4.006  0.5454  0.1248 -0.0148
  615WAT     H1 2056   0.362   4.550   4.066 -0.4408 -0.2644 -0.4710
  615WAT     H2 2057   0.439   4.611   3.950 -0.7126 -1.6835 -1.4227
  616WAT      O 2058   0.624   2.956   2.842 -0.1769  0.0429  0.0765
  616WAT     H1 2059   0.584   2.870   2.853 -0.8287 -0.2661 -3.4989
  616WAT     H2 2060   0.553   3.011   2.810  0.7257  1.3435  0.2395
  617WAT      O 2061   4.023   3.126   1.858  0.3957  0.5420  0.2810
  617WAT     H1 2062   4.054   3.104   1.946 -0.3300 -0.8721  0.2114
  617WAT     H2 2063   4.027   3.043   1.810 -0.1809  1.0859 -0.7295
  618WAT      O 2064   1.693   2.001   1.955 -0.1269  0.1819 -0.0355
  618WAT     H1 2065   1.605   2.015   1.990  0.7196 -0.0916  2.4511
  618WAT     H2 2066   1.692   1.911   1.922 -1.0730  0.5668 -1.1100
  619WAT      O 2067   4.572   0.185   3.308 -0.0161  0.0924  0.2691
  619WAT     H1 2068   4.598   0.234   3.230  1.2132 -1.3657 -0.2906
  619WAT     H2 2069   4.535   0.104   3.273  0.1937 -0.4156  1.1916
  620WAT      O 2070   4.575   4.561   5.374 -0.7747  0.3745  0.2524
  620WAT     H1 2071   4.514   4.579   5.303 -1.9500 -1.4134  0.7607
  620WAT     H2 2072   4.563   4.634   5.435  0.2870  1.9670 -1.3212
  621WAT      O 2073   2.893   4.068   1.517 -0.6104  0.2177  0.0043
  621WAT     H1 2074   2.914   4.149   1.563  1.5032 -1.1491  1.6213
  621WAT     H2 2075   2.817   4.033   1.563 -0.4864  0.4500  0.3833
  622WAT      O 2076   0.731   2.139   3.757  0.2129  0.0854 -0.4293
  622WAT     H1 2077   0.675   2.211   3.786 -0.6225 -0.4802 -0.6170
  622WAT     H2 2078   0.796   2.130   3.827 -0.2698  0.3713  0.0620
  623WAT      O 2079   2.286   1.941   3.286  0.0988 -0.6107 -0.6013
  623WAT     H1 2080   2.203   1.987   3.274 -0.1892 -1.2688 -1.1867
  623WAT     H2 2081   2.264   1.862   3.334  0.5401 -0.3164  0.0981
  624WAT      O 2082   3.762   2.988   3.412  0.5784  0.1194  0.0691
  624WAT     H1 2083   3.772   3.004   3.505  0.1903 -0.3555  0.1938
  624WAT     H2 2084   3.818   2.912   3.394  0.1194 -0.2179  0.0506
  625WAT      O 2085   0.551   4.041   2.684  0.4847  0.0791  0.1232
  625WAT     H1 2086   0.498   4.103   2.734 -0.6710  0.2505 -1.2284
  625WAT     H2 2087   0.636   4.042   2.727 -0.1355  0.9957  1.4178
  626WAT      O 2088   4.210   3.829   3.270  0.3570 -0.4870 -0.1977
  626WAT     H1 2089   4.242   3.893   3.206  0.0337 -0.5003 -0.3767
  626WAT     H2 2090   4.234   3.744   3.234  1.1290 -0.4507  0.2310
  627WAT      O 2091   3.050   1.721   0.775  0.2207 -0.0956  0.7032
  627WAT     H1 2092   3.035   1.781   0.848 -1.2867  2.4314 -1.5442
  627WAT     H2 2093   2.962   1.695   0.747  0.7059  0.0846 -1.0749
  628WAT      O 2094   4.304   2.741   4.352 -0.4249  0.0092  0.0763
  628WAT     H1 2095   4.235   2.784   4.402 -0.0170  0.8814 -0.0870
  628WAT     H2 2096   4.368   2.810   4.336 -0.0039 -0.5366 -0.6558
  629WAT      O 2097   1.420   1.876   3.611  0.0389  0.0484 -0.0437
  629WAT     H1 2098   1.381   1.879   3.524  1.4042  0.5284 -0.6603
  629WAT     H2 2099   1.422   1.968   3.640 -1.8510 -0.2409  1.1892
  630WAT      O 2100   3.623   3.659   1.569 -0.1894 -0.4357  0.8478
  630WAT     H1 2101   3.626   3.610   1.651  1.3334 -1.1310  0.4298
  630WAT     H2 2102   3.704   3.710   1.570 -0.6049  0.2500  0.1839
  631WAT      O 2103   4.083   3.808   2.373  0.3993 -0.6344 -0.4059
  631WAT     H1 2104   4.164   3.757   2.379  0.9373 -0.1070 -2.2675
  631WAT     H2 2105   4.066   3.839   2.462  2.6711 -0.1320 -0.0917
  632WAT      O 2106   3.929   2.421   1.851  0.2768 -0.5246 -0.7061
  632WAT     H1 2107   3.994   2.429   1.920 -0.8180  0.8890  0.2010
  632WAT     H2 2108   3.919   2.327   1.838  0.8901 -0.7944  0.6745
  633WAT      O 2109   3.527   3.998   3.000 -0.3487 -0.4449  0.0907
  633WAT     H1 2110   3.577   4.065   3.047  0.3823 -3.0373  3.4694
  633WAT     H2 2111   3.592   3.953   2.947 -0.7277  1.0022 -1.6978
  634WAT      O 2112   3.830   3.169   4.229  0.0858 -0.6607  0.1691
  634WAT     H1 2113   3.860   3.237   4.288 -0.7975 -1.0709  1.1196
  634WAT     H2 2114   3.855   3.200   4.142  1.0421  0.1405  0.7159
  635WAT      O 2115   3.085   2.176   1.330 -0.4710 -0.4612  0.3064
  635WAT     H1 2116   3.137   2.234   1.275 -1.4288 -0.5665 -0.7422
  635WAT     H2 2117   2.998   2.175   1.289 -0.5943 -2.2870  0.5355
  636WAT      O 2118   4.282   3.447   4.230  0.4735 -0.0995 -0.0285
  636WAT     H1 2119   4.303   3.458   4.137  0.4052 -0.0531 -0.0387
  636WAT     H2 2120   4.188   3.432   4.232  0.3172  0.8176  0.0973
  637WAT      O 2121   4.652   1.068   4.236  0.3010  0.3873 -0.0438
  637WAT     H1 2122   4.653   1.161   4.257  1.7670 -0.0834  2.3362
  637WAT     H2 2123   4.631   1.025   4.319 -0.4179 -1.4226 -1.1031
  638WAT      O 2124   4.945   5.261   2.510 -0.5850 -0.2626 -0.1665
  638WAT     H1 2125   4.931   5.207   2.588 -0.2504 -0.2957 -0.1276
  638WAT     H2 2126   4.881   5.229   2.447 -0.9001 -0.1934  0.1145
  639WAT      O 2127   4.677   1.331   2.530 -0.1369  0.1377  0.2606
  639WAT     H1 2128   4.737   1.348   2.458 -0.0250 -0.8688  0.0939
  639WAT     H2 2129   4.605   1.281   2.490 -0.7628  0.7617  0.5806
  640WAT      O 2130   0.499   5.015   2.742 -0.3234 -0.6556  0.2486
  640WAT     H1 2131   0.590   4.988   2.735 -0.1603 -0.3767  1.1712
  640WAT     H2 2132   0.502   5.111   2.745 -0.6830 -0.6257 -0.1897
  641WAT      O 2133   1.580   0.502   1.334 -0.2093 -0.2897  0.1377
  641WAT     H1 2134   1.642   0.432   1.315 -0.4329 -0.3904 -0.2326
  641WAT     H2 2135   1.607   0.535   1.420  0.3665 -0.3159 -0.0315
  642WAT      O 2136   3.616   4.678   2.867 -0.0048  0.1530  0.4608
  642WAT     H1 2137   3.522   4.683   2.883 -0.4931 -1.9274 -1.2987
  642WAT     H2 2138   3.652   4.636   2.946 -1.1864 -2.6635 -0.3815
  643WAT      O 2139   2.886   0.522   3.602  0.1982 -0.1799  0.7660
  643WAT     H1 2140   2.920   0.444   3.645  1.8467  0.6517  1.0709
  643WAT     H2 2141   2.916   0.514   3.511  0.4679  0.1401  0.8244
  644WAT      O 2142   0.296   4.360   3.455 -0.2434 -0.4571  0.1351
  644WAT     H1 2143   0.340   4.313   3.384  0.5157 -0.9427  0.8990
  644WAT     H2 2144   0.210   4.381   3.420 -0.3564 -1.8180 -0.4941
  645WAT      O 2145   0.481   5.605   4.315  0.8213  0.1581 -0.7150
  645WAT     H1 2146   0.413   5.608   4.249 -0.3723 -1.2142  0.3924
  645WAT     H2 2147   0.534   5.529   4.292  0.6287 -0.1004 -0.3120
  646WAT      O 2148   3.183   3.127   1.526  0.1096 -0.1086  0.1982
  646WAT     H1 2149   3.257   3.128   1.466  1.5777 -0.2433  1.9200
  646WAT     H2 2150   3.182   3.215   1.564 -0.6433 -0.0965  0.1595
  647WAT      O 2151   3.811   1.844   2.345  0.2171 -0.2242  0.0066
  647WAT     H1 2152   3.901   1.864   2.319  0.4899 -1.5114 -0.1464
  647WAT     H2 2153   3.819   1.765   2.399 -0.8962 -0.8750 -0.7378
  648WAT      O 2154  -0.018   4.845   4.750  0.0600  0.3429 -0.1105
  648WAT     H1 2155   0.061   4.868   4.799  0.4636  0.8559 -0.9765
  648WAT     H2 2156   0.014   4.819   4.664 -0.6883  0.1387 -0.3375
  649WAT      O 2157   0.807   2.270   3.400  0.0175  0.0372  0.0905
  649WAT     H1 2158   0.898   2.277   3.429  0.1475  0.3826 -0.3995
  649WAT     H2 2159   0.765   2.349   3.433  0.1380  0.3737 -0.5598
  650WAT      O 2160   4.419   3.233   2.523 -0.8843  0.5414 -0.1896
  650WAT     H1 2161   4.334   3.220   2.481 -0.1015 -1.6671 -1.1853
  650WAT     H2 2162   4.430   3.157   2.579  1.9674 -1.2069 -2.8306
  651WAT      O 2163   1.395   5.613   2.323  0.5541 -0.3415 -0.0436
  651WAT     H1 2164   1.310   5.647   2.352  0.2890 -0.5372 -0.5751
  651WAT     H2 2165   1.455   5.688   2.331 -0.5703  1.2355 -3.8449
  652WAT      O 2166   3.572   4.356   4.967 -0.1142  0.3961  0.7391
  652WAT     H1 2167   3.524   4.278   4.995 -1.8918  0.3522 -2.0232
  652WAT     H2 2168   3.534   4.428   5.019  0.9571 -0.3757  2.6941
  653WAT      O 2169   0.908   0.706   3.428 -0.5599 -0.1950 -0.2151
  653WAT     H1 2170   0.922   0.635   3.490 -0.9138  0.5337  0.7402
  653WAT     H2 2171   0.913   0.785   3.482 -1.1531  0.4405 -1.0725
  654WAT      O 2172   4.685   0.546   3.361  0.2736  0.0393 -0.3006
  654WAT     H1 2173   4.722   0.615   3.416  1.9654  1.0490 -2.5031
  654WAT     H2 2174   4.669   0.473   3.420  0.8228  1.4482  1.6867
  655WAT      O 2175   4.230   5.105   3.126 -0.1185  0.6871  0.6374
  655WAT     H1 2176   4.315   5.146   3.111  0.0471  0.3067  0.5298
  655WAT     H2 2177   4.204   5.070   3.041  0.1659 -0.2283  0.9164
  656WAT      O 2178   3.506   3.068   5.001 -0.1769 -0.3196  0.0214
  656WAT     H1 2179   3.553   3.150   5.013  0.1459 -0.3735 -0.8490
  656WAT     H2 2180   3.416   3.088   5.029  0.1043  0.0641  0.6889
  657WAT      O 2181   3.058   1.130   2.672 -0.8082 -0.7410 -0.1433
  657WAT     H1 2182   3.145   1.150   2.707 -0.6779 -1.8932  0.2169
  657WAT     H2 2183   3.009   1.097   2.747 -0.8192 -2.3348 -0.8058
  658WAT      O 2184   4.881   2.776   3.250 -0.1253  0.4715 -0.1118
  658WAT     H1 2185   4.876   2.855   3.197  1.0162  0.8676  0.3480
  658WAT     H2 2186   4.845   2.707   3.194  1.5219  0.7676 -1.6183
  659WAT      O 2187   2.909   0.696   1.891 -0.3524 -0.1455  0.1741
  659WAT     H1 2188   2.846   0.657   1.952 -1.5586 -1.3722 -1.7396
  659WAT     H2 2189   2.911   0.789   1.914 -1.9081 -0.3130  1.1183
  660WAT      O 2190   3.516   3.459   2.540 -0.4925  0.3219  1.0423
  660WAT     H1 2191   3.581   3.403   2.582 -1.4883 -0.8129  1.1276
  660WAT     H2 2192   3.462   3.399   2.489 -0.2662  1.4810 -0.6441
  661WAT      O 2193   4.121   5.603   3.429  0.5588  0.4666  0.4778
  661WAT     H1 2194   4.151   5.534   3.371  0.5675  0.2498  0.7377
  661WAT     H2 2195   4.036   5.572   3.461  2.1700 -1.2955  3.6158
  662WAT      O 2196   4.239   2.352   2.546 -0.1051  0.1325  0.1115
  662WAT     H1 2197   4.270   2.410   2.477 -0.5473  0.0633 -0.1533
  662WAT     H2 2198   4.212   2.272   2.501 -0.1937  0.0049  0.3847
  663WAT      O 2199   3.196   2.617   1.801 -0.5170  0.3515  0.1096
  663WAT     H1 2200   3.215   2.608   1.708  0.3059 -0.4074  0.3463
  663WAT     H2 2201   3.281   2.618   1.844 -0.9059 -0.1499  0.9287
  664WAT      O 2202   3.874   3.051   4.964 -0.4238 -0.4962  0.5552
  664WAT     H1 2203   3.966   3.028   4.957 -0.6527 -1.7360  1.2470
  664WAT     H2 2204   3.858   3.109   4.891  1.4053  1.5041  1.6322
  665WAT      O 2205   3.551   4.541   1.570 -0.0338 -0.2400 -0.1351
  665WAT     H1 2206   3.486   4.604   1.601  1.5991  2.4307 -1.7204
  665WAT     H2 2207   3.596   4.512   1.649  1.1639  3.0244  0.5356
  666WAT      O 2208   2.522   0.551   0.779  0.2161 -0.6206 -0.1775
  666WAT     H1 2209   2.469   0.614   0.827  1.3563  0.0617  0.2270
  666WAT     H2 2210   2.488   0.465   0.805 -1.0419 -0.1952 -0.3749
  667WAT      O 2211   0.372   1.432   3.227  0.2502 -0.0176  0.7472
  667WAT     H1 2212   0.346   1.519   3.257 -0.2076 -0.4002  1.5013
  667WAT     H2 2213   0.370   1.438   3.132 -1.1353  0.4140  0.7829
  668WAT      O 2214   0.176   1.430   2.678  0.0213 -0.4721 -0.0568
  668WAT     H1 2215   0.180   1.513   2.630 -0.9780 -0.9137 -0.9354
  668WAT     H2 2216   0.230   1.371   2.626 -1.3838 -1.0596 -0.9126
  669WAT      O 2217   2.694   2.122   4.304  0.1542 -0.1875 -0.5108
  669WAT     H1 2218   2.783   2.122   4.341  0.8283 -1.1998 -2.0171
  669WAT     H2 2219   2.698   2.187   4.233  0.2355 -1.4566 -1.7131
  670WAT      O 2220   2.085   1.968   2.689 -0.5998 -0.1221 -0.3313
  670WAT     H1 2221   2.161   1.938   2.640  0.6017 -1.1078  1.9467
  670WAT     H2 2222   2.116   1.973   2.780 -3.1980 -0.3283  0.6499
  671WAT      O 2223   4.660   1.427   2.786 -0.1922  0.2643 -0.2627
  671WAT     H1 2224   4.754   1.437   2.802 -0.2900 -0.3615  0.8210
  671WAT     H2 2225   4.654   1.399   2.694  0.7424 -0.4935 -0.1058
  672WAT      O 2226   1.804   2.318   2.898  0.4707  0.4541  0.2009
  672WAT     H1 2227   1.820   2.369   2.977  0.9676  0.2770  0.2153
  672WAT     H2 2228   1.859   2.240   2.907 -2.2075 -1.4617  1.4380
  673WAT      O 2229   4.908   3.962   4.371  0.2523  0.0312 -0.2031
  673WAT     H1 2230   4.818   3.932   4.381 -0.1293  1.5634  1.4633
  673WAT     H2 2231   4.961   3.886   4.396 -0.6644  0.3631  3.1505
  674WAT      O 2232   1.554   3.012   1.619 -0.5075 -0.5421 -0.0956
  674WAT     H1 2233   1.540   2.974   1.705 -0.1339 -0.4785 -0.0040
  674WAT     H2 2234   1.537   2.940   1.558 -2.0202 -0.2581 -0.0473
  675WAT      O 2235   0.525   3.957   3.606  0.5168 -0.2994  0.0466
  675WAT     H1 2236   0.507   4.038   3.557 -1.3026 -0.7506 -0.0731
  675WAT     H2 2237   0.536   3.986   3.697 -0.0141  0.0877 -0.0103
  676WAT      O 2238   4.145   1.937   3.057 -0.9275  0.2049  0.1466
  676WAT     H1 2239   4.105   1.911   2.974 -1.4063  1.1800  0.0595
  676WAT     H2 2240   4.204   2.009   3.033 -1.7398  1.1023  0.7623
  677WAT      O 2241   0.706   1.904   3.647  0.4174 -0.0115 -0.4299
  677WAT     H1 2242   0.702   1.985   3.698  0.0722 -0.2289 -0.1028
  677WAT     H2 2243   0.767   1.923   3.576  1.8043 -0.0498  0.6889
  678WAT      O 2244   4.141   4.734   3.287 -0.0971  0.3262 -0.2104
  678WAT     H1 2245   4.089   4.806   3.250 -1.2891  0.3088  1.3255
  678WAT     H2 2246   4.221   4.775   3.318 -0.9010  1.0704  0.9267
  679WAT      O 2247   2.100   2.962   3.206 -0.3002 -0.3586  0.1281
  679WAT     H1 2248   2.010   2.969   3.175 -0.1487  0.9775 -0.0847
  679WAT     H2 2249   2.151   3.014   3.143  0.4453 -0.1629  0.8713
  680WAT      O 2250   0.286   1.712   3.538  0.7468  0.2998 -0.5890
  680WAT     H1 2251   0.243   1.712   3.453 -1.1334  1.6292  0.2931
  680WAT     H2 2252   0.326   1.799   3.545  3.9784 -0.9719 -1.4878
  681WAT      O 2253   3.514   2.294   4.267  0.3592  0.1591 -0.3444
  681WAT     H1 2254   3.435   2.345   4.286  0.7856  0.9134 -0.5677
  681WAT     H2 2255   3.532   2.246   4.348 -1.1547 -1.1712 -0.7445
  682WAT      O 2256   3.217   0.509   4.893  0.2266 -0.7528 -0.6500
  682WAT     H1 2257   3.211   0.581   4.955  0.7173 -0.8957 -0.4345
  682WAT     H2 2258   3.168   0.539   4.816  1.2159  0.2040 -0.9432
  683WAT      O 2259   0.012   2.778   2.471 -0.4423 -0.2737  0.3277
  683WAT     H1 2260   0.080   2.711   2.470 -0.1268 -0.0513  2.2645
  683WAT     H2 2261   0.033   2.835   2.397  1.2215 -0.4829  0.5934
  684WAT      O 2262   0.265   3.689   2.079  0.0546  0.0029 -0.9258
  684WAT     H1 2263   0.218   3.608   2.058 -0.3240  0.4492 -1.8772
  684WAT     H2 2264   0.305   3.672   2.164  0.3224 -1.3322 -1.2931
  685WAT      O 2265   1.368   2.100   1.177  0.0550 -0.8859 -0.2198
  685WAT     H1 2266   1.319   2.045   1.116 -0.1789 -0.3007 -0.5670
  685WAT     H2 2267   1.436   2.142   1.124 -1.4832  1.3224 -0.5851
  686WAT      O 2268   4.605   5.496   4.835 -0.0275 -0.0492  0.1771
  686WAT     H1 2269   4.562   5.518   4.918 -2.2280  0.9813 -1.1463
  686WAT     H2 2270   4.682   5.553   4.833 -0.3501  0.4603  1.1852
  687WAT      O 2271   3.411   3.035   3.288 -0.4775  0.6303 -0.3920
  687WAT     H1 2272   3.476   3.105   3.295  0.9326 -0.5930 -0.6874
  687WAT     H2 2273   3.444   2.966   3.345 -0.5313 -0.7299 -1.9239
  688WAT      O 2274   0.620   1.331   3.298 -0.8257 -0.0147 -0.0532
  688WAT     H1 2275   0.607   1.255   3.355 -1.4022  1.2298  1.5699
  688WAT     H2 2276   0.533   1.367   3.286 -0.5673  0.3438 -0.8676
  689WAT      O 2277   2.884   2.952   4.144 -0.1938  0.2651 -0.3558
  689WAT     H1 2278   2.934   3.018   4.096  2.4873 -0.4476  1.2462
  689WAT     H2 2279   2.816   3.001   4.190  1.0111  1.7799 -0.1248
  690WAT      O 2280   3.555   4.484   2.334  0.1143  0.3974  0.2779
  690WAT     H1 2281   3.640   4.439   2.333 -1.8772 -4.0655  2.5931
  690WAT     H2 2282   3.534   4.493   2.427 -2.0103  1.3388 -0.2392
  691WAT      O 2283   3.233   2.270   5.072 -0.7176 -0.3119  0.1406
  691WAT     H1 2284   3.269   2.302   4.989 -1.3141  1.5652  0.5598
  691WAT     H2 2285   3.159   2.215   5.046 -0.0897 -0.8564 -0.5838
  692WAT      O 2286   2.105   0.511   1.811 -0.1203  0.0747  0.3383
  692WAT     H1 2287   2.159   0.589   1.803 -2.2428  1.6134  0.2472
  692WAT     H2 2288   2.103   0.494   1.906  0.0028  0.3977  0.4015
  693WAT      O 2289   0.703   0.239   2.425 -0.4665 -0.3670 -0.3838
  693WAT     H1 2290   0.767   0.167   2.422 -0.4289 -0.3409 -0.2065
  693WAT     H2 2291   0.623   0.201   2.389 -0.7844 -0.8379  0.7624
  694WAT      O 2292   1.118   0.262   4.249 -0.3451 -0.0590 -0.1705
  694WAT     H1 2293   1.025   0.241   4.248 -0.9100  2.2336 -0.1704
  694WAT     H2 2294   1.131   0.315   4.327  0.3346  2.0519 -1.6185
  695WAT      O 2295   2.954   3.087   1.092  0.1318  0.3023 -0.3317
  695WAT     H1 2296   2.996   3.159   1.046 -1.3117  2.3607  1.3504
  695WAT     H2 2297   2.870   3.076   1.048  0.1850 -0.1087 -0.3351
  696WAT      O 2298   4.064   3.975   4.137 -0.2188 -0.4285 -0.5325
  696WAT     H1 2299   4.074   3.892   4.184 -0.8855  1.0680  2.5454
  696WAT     H2 2300   4.152   3.997   4.108  0.6569 -0.6035  1.7373
  697WAT      O 2301   3.551   3.918   2.088  0.3711 -0.2809  0.1981
  697WAT     H1 2302   3.599   3.843   2.054 -1.4348 -1.6225  0.4690
  697WAT     H2 2303   3.545   3.902   2.182 -2.2885 -1.2607 -0.0484
  698WAT      O 2304   4.319   2.107   5.033  0.2450  0.1839  0.1798
  698WAT     H1 2305   4.400   2.158   5.034 -0.0291  0.6488  1.3881
  698WAT     H2 2306   4.250   2.172   5.027 -0.0831 -0.0785  0.9028
  699WAT      O 2307   4.317   3.688   2.405 -0.1538  0.2292  0.1657
  699WAT     H1 2308   4.403   3.718   2.374  0.6113 -0.7608  1.2308
  699WAT     H2 2309   4.337   3.634   2.481 -1.7411 -0.0281  0.4314
  700WAT      O 2310   3.852   3.076   2.525 -0.3254 -0.1967  0.1816
  700WAT     H1 2311   3.820   3.157   2.565  1.6993  1.0631 -0.6216
  700WAT     H2 2312   3.802   3.069   2.443 -0.3422  0.3586  0.1419
  701WAT      O 2313   4.548   2.336   4.132  0.3182 -0.0875  0.4625
  701WAT     H1 2314   4.539   2.248   4.168  1.2801 -0.6635 -0.6625
  701WAT     H2 2315   4.469   2.381   4.161  1.0533 -0.4705  3.3436
  702WAT      O 2316   2.857   2.026   5.691  0.5228  0.2418  0.2336
  702WAT     H1 2317   2.921   1.988   5.752 -0.1795 -0.4369  0.5593
  702WAT     H2 2318   2.797   2.075   5.747 -0.2659 -0.5826  0.1282
  703WAT      O 2319   3.470   4.015   0.046  0.2894  0.8438 -0.2903
  703WAT     H1 2320   3.512   3.932   0.022 -0.7913 -0.0124  0.6402
  703WAT     H2 2321   3.395   4.022  -0.013 -0.3860  0.4722  0.5091
  704WAT      O 2322   0.461   5.608   3.966  0.0461 -0.1355  0.2505
  704WAT     H1 2323   0.393   5.603   4.033 -0.2336  1.6083  0.1484
  704WAT     H2 2324   0.456   5.524   3.921 -1.6972 -0.2553  0.5788
  705WAT      O 2325   3.172   0.878   0.392 -0.0968 -0.1705 -0.4943
  705WAT     H1 2326   3.241   0.839   0.339  0.5928  0.9010 -0.4325
  705WAT     H2 2327   3.213   0.892   0.478  0.1243  1.8041 -0.8698
  706WAT      O 2328   4.029   2.437   2.321 -0.3138  0.2335  0.0565
  706WAT     H1 2329   3.950   2.487   2.300 -0.8435  0.5325  2.4376
  706WAT     H2 2330   4.087   2.501   2.362 -0.8325 -0.8711  2.7875
  707WAT      O 2331   0.256   1.016   2.371 -0.0476 -0.3537 -0.6928
  707WAT     H1 2332   0.167   1.039   2.344  0.0851  1.3221  0.1567
  707WAT     H2 2333   0.304   1.003   2.289 -0.3401  1.7532 -1.2373
  708WAT      O 2334   4.962   4.360   2.443  0.1806 -0.0723 -0.7042
  708WAT     H1 2335   5.034   4.398   2.392  0.4689  3.0829  1.7517
  708WAT     H2 2336   4.883   4.398   2.404 -0.2802 -2.7389 -2.7328
  709WAT      O 2337   0.321   4.902   3.238 -0.7265 -0.9359 -0.2234
  709WAT     H1 2338   0.357   4.938   3.157  0.5053 -3.5192 -0.9341
  709WAT     H2 2339   0.296   4.979   3.289  1.0206  0.8758 -1.8980
  710WAT      O 2340   3.695   1.276   2.297 -0.2493 -0.1366 -0.5406
  710WAT     H1 2341   3.682   1.184   2.320 -0.0452 -0.4074 -1.4692
  710WAT     H2 2342   3.663   1.324   2.373 -0.8955 -0.9593 -0.2753
  711WAT      O 2343   3.426   4.194   1.257  0.6226  0.2888  0.2334
  711WAT     H1 2344   3.456   4.244   1.333 -0.4710  0.0888  0.8244
  711WAT     H2 2345   3.440   4.102   1.282  0.6979  0.2364  0.0003
  712WAT      O 2346   3.968   0.393   1.918  0.0096  0.1142 -0.0020
  712WAT     H1 2347   4.032   0.336   1.876 -0.9390 -0.3665 -0.8586
  712WAT     H2 2348   3.888   0.380   1.867 -0.3755  1.8209  0.1039
  713WAT      O 2349   4.076   5.385   1.892  0.0835 -0.2619 -0.4887
  713WAT     H1 2350   4.045   5.342   1.812  1.1510 -0.0657 -1.0265
  713WAT     H2 2351   4.131   5.457   1.861 -1.1142  1.0826  0.4011
  714WAT      O 2352   2.387  -0.005   3.658  0.8591 -0.2152  0.0577
  714WAT     H1 2353   2.438   0.061   3.706 -0.3341  0.3458  0.5851
  714WAT     H2 2354   2.384   0.028   3.568  1.8191 -0.5057 -0.1000
  715WAT      O 2355   2.552   3.462   1.113  0.6813  0.2120  0.5809
  715WAT     H1 2356   2.514   3.398   1.174  0.7734 -2.0093 -1.5288
  715WAT     H2 2357   2.584   3.409   1.040 -1.5154  2.8390 -2.5874
  716WAT      O 2358   3.891   0.493   5.177 -0.0579 -0.1904  0.7948
  716WAT     H1 2359   3.986   0.490   5.172  0.1175  2.6051  0.8871
  716WAT     H2 2360   3.862   0.505   5.086 -0.2830 -0.4617  0.8292
  717WAT      O 2361   2.047   0.987   4.571  0.4029  0.0474 -0.4694
  717WAT     H1 2362   2.088   1.057   4.520  0.3108 -1.3773 -2.5840
  717WAT     H2 2363   1.954   0.995   4.553  0.4044 -0.7020 -0.8306
  718WAT      O 2364   4.712   3.400   4.629  0.0032 -0.8610 -0.2613
  718WAT     H1 2365   4.621   3.427   4.620 -0.1959 -1.4360 -0.0488
  718WAT     H2 2366   4.719   3.368   4.719  0.6903  0.1540  0.0613
  719WAT      O 2367   4.486   2.322   4.967 -0.1267  0.8559 -0.1687
  719WAT     H1 2368   4.409   2.304   4.913 -1.3112  3.0029  0.7149
  719WAT     H2 2369   4.560   2.313   4.907 -1.1787  0.4190 -1.4477
  720WAT      O 2370   3.068   0.544   5.703 -0.6013 -0.1873  0.0333
  720WAT     H1 2371   3.100   0.602   5.633 -2.5066  0.3088 -0.4793
  720WAT     H2 2372   3.148   0.509   5.743  0.5654  0.9110 -1.2219
  721WAT      O 2373   1.729   3.795   0.149  0.1354 -0.1727  0.3718
  721WAT     H1 2374   1.806   3.823   0.200  0.7545 -0.4245 -0.4110
  721WAT     H2 2375   1.742   3.701   0.137  0.5436  0.0583 -1.1444
  722WAT      O 2376   2.089   2.983   5.695 -0.2437 -1.0484 -0.0898
  722WAT     H1 2377   2.101   2.899   5.651  0.0560 -1.0996  0.0880
  722WAT     H2 2378   1.995   2.990   5.709 -0.4213 -0.7169 -1.3585
  723WAT      O 2379   3.593   3.219   3.315  0.1939 -0.3449  0.6224
  723WAT     H1 2380   3.624   3.309   3.308  0.0121  0.0567  3.6115
  723WAT     H2 2381   3.671   3.168   3.335  0.0311 -0.5141  0.8395
  724WAT      O 2382   2.421   1.667   1.431  0.2288  0.2386  0.3636
  724WAT     H1 2383   2.430   1.572   1.435 -1.1543  0.1013  0.8708
  724WAT     H2 2384   2.446   1.690   1.342  0.9949 -0.5420  0.3641
  725WAT      O 2385   2.043   5.224   0.192 -0.1385 -0.5921 -0.1905
  725WAT     H1 2386   2.013   5.134   0.189 -1.2197 -0.3323  1.3953
  725WAT     H2 2387   2.068   5.245   0.102 -1.6943 -1.8637 -0.9505
  726WAT      O 2388   2.711   3.294   1.872  0.1403 -0.4277  0.6635
  726WAT     H1 2389   2.696   3.365   1.935 -0.0585 -0.3627  0.5423
  726WAT     H2 2390   2.669   3.218   1.911  0.3775 -0.4869  0.8068
  727WAT      O 2391   3.184   1.980   4.423  0.0417 -0.8210 -0.3627
  727WAT     H1 2392   3.199   1.915   4.492  1.1352  0.2958  0.4963
  727WAT     H2 2393   3.191   2.064   4.468 -1.7190 -0.0917 -1.3824
  728WAT      O 2394   2.112   3.962   1.764  0.0568  0.1558  0.4605
  728WAT     H1 2395   2.129   4.056   1.770  0.4497  0.0222  1.8738
  728WAT     H2 2396   2.164   3.933   1.689  0.3678  0.9818  0.3419
  729WAT      O 2397   2.109   2.320   0.683 -0.4432  0.3823  0.4760
  729WAT     H1 2398   2.066   2.384   0.741  0.0068  2.0064 -0.9109
  729WAT     H2 2399   2.110   2.362   0.597 -0.6145 -1.7393 -0.6464
  730WAT      O 2400   2.071   2.849   0.711  0.1119  0.4430  0.1303
  730WAT     H1 2401   2.000   2.798   0.750 -0.6359 -1.3121 -3.1630
  730WAT     H2 2402   2.079   2.925   0.768 -3.1903 -0.1446  1.6502
  731WAT      O 2403   1.345   2.619   5.287  0.1725 -0.0610 -0.1440
  731WAT     H1 2404   1.362   2.614   5.193  2.3936  1.1803  0.1316
  731WAT     H2 2405   1.275   2.555   5.302 -0.5357  0.0053 -2.6790
  732WAT      O 2406   2.537   5.364   3.222  0.5896  0.0543  0.3940
  732WAT     H1 2407   2.539   5.307   3.144  0.7994 -0.3256  0.6751
  732WAT     H2 2408   2.464   5.424   3.206  0.4044 -0.2560  0.0677
  733WAT      O 2409   2.560   4.023   5.383  0.1663  0.1989  0.4442
  733WAT     H1 2410   2.603   3.964   5.322  1.3603 -1.7433  2.9724
  733WAT     H2 2411   2.473   4.037   5.346  0.3579 -1.9758 -0.9872
  734WAT      O 2412   3.716   4.511   0.254  0.4196  0.1907  0.2840
  734WAT     H1 2413   3.665   4.434   0.229 -0.2120  0.2593  1.3295
  734WAT     H2 2414   3.682   4.536   0.340  0.9553  1.3430  0.1788
  735WAT      O 2415   1.817   0.745   0.557 -0.3172  0.1070  0.6940
  735WAT     H1 2416   1.894   0.788   0.519  0.6042 -0.9216  1.3606
  735WAT     H2 2417   1.753   0.816   0.569  0.8050  1.1128  0.8636
  736WAT      O 2418   1.434   3.386   1.221  0.2462  0.1702 -0.0899
  736WAT     H1 2419   1.394   3.442   1.155  1.1102  1.9257  0.7900
  736WAT     H2 2420   1.443   3.443   1.298 -0.9758 -1.8590  1.6642
  737WAT      O 2421   1.479   3.471   1.624 -0.6312  0.0354  0.2608
  737WAT     H1 2422   1.477   3.543   1.561  2.4283  2.7656  2.9428
  737WAT     H2 2423   1.422   3.500   1.696  0.7894 -0.0231  1.4576
  738WAT      O 2424   2.175   5.118   4.595 -0.2453 -0.0340  0.1919
  738WAT     H1 2425   2.262   5.108   4.556  0.0970  0.2560  0.8475
  738WAT     H2 2426   2.186   5.189   4.659 -0.6114 -0.8992  1.2453
  739WAT      O 2427   2.277   2.280   2.073 -0.1865  0.5095  0.1659
  739WAT     H1 2428   2.365   2.245   2.058 -0.6375 -0.0502 -1.2939
  739WAT     H2 2429   2.291   2.358   2.126  1.3414  1.3052 -1.3235
  740WAT      O 2430   4.273   2.884   3.109 -0.1663 -1.0286  0.0461
  740WAT     H1 2431   4.179   2.883   3.123 -0.0371 -0.6387  1.0234
  740WAT     H2 2432   4.308   2.826   3.177  0.3540 -0.4856  0.2513
  741WAT      O 2433   2.402   1.804   5.689 -0.0484 -0.1255  0.4715
  741WAT     H1 2434   2.333   1.739   5.699 -0.4454  0.4091  1.2580
  741WAT     H2 2435   2.385   1.869   5.756 -1.7432  2.7027 -2.4136
  742WAT      O 2436   2.660   4.121   2.607  0.0252  0.3322 -0.5894
  742WAT     H1 2437   2.661   4.168   2.691  1.0502 -2.3524  1.0313
  742WAT     H2 2438   2.735   4.156   2.559  0.0806  1.1322  0.0559
  743WAT      O 2439   3.226   3.908   5.149 -0.1275 -0.3516 -0.6771
  743WAT     H1 2440   3.147   3.895   5.202 -0.0013 -0.4782 -0.5192
  743WAT     H2 2441   3.293   3.855   5.192  0.6784  1.5923  0.5710
  744WAT      O 2442   1.161   1.147   2.183 -0.3976  0.2200 -0.3799
  744WAT     H1 2443   1.114   1.087   2.126  1.8341 -1.2462 -0.8169
  744WAT     H2 2444   1.202   1.210   2.123  0.5854 -0.3223 -0.3093
  745WAT      O 2445   4.514   4.473   2.388 -0.1072  0.2785  0.3832
  745WAT     H1 2446   4.494   4.519   2.469 -0.8561  0.5783  0.0370
  745WAT     H2 2447   4.431   4.471   2.340  0.5277  0.9847 -0.8086
  746WAT      O 2448   2.938   3.347  -0.023  0.4487  0.4284  0.1039
  746WAT     H1 2449   2.864   3.394   0.015 -1.4588 -1.5743 -0.8892
  746WAT     H2 2450   2.938   3.262   0.023  2.2569  0.4460  0.1947
  747WAT      O 2451   2.758   4.191   1.111 -0.5614  0.4567 -0.3463
  747WAT     H1 2452   2.719   4.253   1.050  0.6929  1.5753 -0.0573
  747WAT     H2 2453   2.779   4.114   1.057 -2.0467  0.2850 -0.7205
  748WAT      O 2454   3.208   1.195   0.842  0.3257  0.2851 -0.0057
  748WAT     H1 2455   3.217   1.290   0.834  1.3242  0.6547  3.7199
  748WAT     H2 2456   3.161   1.182   0.924  0.2956 -2.4599 -0.3726
  749WAT      O 2457   2.859   0.192   2.124  0.0723  0.5874 -0.1881
  749WAT     H1 2458   2.901   0.268   2.164 -0.6449  0.4625  0.8490
  749WAT     H2 2459   2.896   0.188   2.036  1.2169  1.2646  0.2293
  750WAT      O 2460   1.221   2.365   3.080  0.0415  0.0462  0.6784
  750WAT     H1 2461   1.207   2.372   2.986  0.0666  1.2206  0.7542
  750WAT     H2 2462   1.159   2.298   3.108 -1.7063  1.4079  0.1981
  751WAT      O 2463   3.968   4.092   1.870  0.2491 -0.6663  0.0389
  751WAT     H1 2464   3.998   4.016   1.921  0.3711 -0.1768  0.7060
  751WAT     H2 2465   3.984   4.167   1.927 -0.0740 -0.1557 -0.5321
  752WAT      O 2466   0.296   1.875   4.002  0.4962  0.0970  0.1704
  752WAT     H1 2467   0.245   1.794   4.013  1.6119 -0.9312 -1.6670
  752WAT     H2 2468   0.303   1.911   4.090 -0.3797 -1.6025  0.9827
  753WAT      O 2469   4.360   3.037   4.457 -0.0388 -0.1747  0.0982
  753WAT     H1 2470   4.391   3.104   4.396 -1.8317 -1.2000 -2.1201
  753WAT     H2 2471   4.265   3.044   4.454 -0.2152 -1.5592  1.2827
  754WAT      O 2472   2.335   0.058   0.480 -0.2023  0.8586 -0.5813
  754WAT     H1 2473   2.364  -0.033   0.489  1.1173  1.2119 -0.9767
  754WAT     H2 2474   2.306   0.083   0.568  1.1960  0.6107 -0.0170
  755WAT      O 2475   2.521   1.025   4.976 -0.0464  0.0288 -0.1565
  755WAT     H1 2476   2.481   1.106   5.007  0.8021  0.3749  0.0640
  755WAT     H2 2477   2.504   0.961   5.045  0.7740  0.4760  0.4735
  756WAT      O 2478   1.714   3.745   5.545 -0.0017 -0.0259  0.1798
  756WAT     H1 2479   1.692   3.701   5.463  3.9419 -0.9217 -0.6365
  756WAT     H2 2480   1.652   3.711   5.609 -2.1994 -0.5122 -2.0677
  757WAT      O 2481   4.689   2.700   2.139  0.2177  0.0862  0.3676
  757WAT     H1 2482   4.613   2.677   2.085  1.0470  0.3303 -0.9417
  757WAT     H2 2483   4.652   2.750   2.212 -0.7959  1.0112 -0.7459
  758WAT      O 2484   1.001   1.329   4.216  0.1441  0.5095 -0.6760
  758WAT     H1 2485   1.073   1.386   4.187  0.3065  0.9358  0.5326
  758WAT     H2 2486   0.939   1.388   4.258  0.0878 -0.1430  0.1694
  759WAT      O 2487   2.729   2.681   5.353  0.4529 -0.0091 -0.0003
  759WAT     H1 2488   2.695   2.726   5.275 -0.9107  1.2283  1.2445
  759WAT     H2 2489   2.667   2.705   5.422  0.1839 -3.1279  0.9522
  760WAT      O 2490   1.643   3.271   1.826 -0.0842 -0.8031  0.0585
  760WAT     H1 2491   1.712   3.205   1.836 -0.6983 -1.3884  0.4915
  760WAT     H2 2492   1.652   3.301   1.735  0.6830 -0.9323  0.0865
  761WAT      O 2493   3.394   2.732   5.261 -0.0059 -0.2456  0.2125
  761WAT     H1 2494   3.466   2.695   5.313 -0.2574 -0.2205  0.5826
  761WAT     H2 2495   3.369   2.661   5.202 -0.2101 -0.5275  0.6342
  762WAT      O 2496   0.798   4.002   1.340  0.4526  0.3949 -0.5533
  762WAT     H1 2497   0.812   4.060   1.265 -0.6927  0.7154 -0.5428
  762WAT     H2 2498   0.813   4.057   1.417 -1.3005  0.9089 -0.5329
  763WAT      O 2499   4.683   4.545   2.940  0.5895 -0.1806  0.0842
  763WAT     H1 2500   4.603   4.589   2.970  0.8309  0.2009  0.1844
  763WAT     H2 2501   4.684   4.560   2.845 -0.1394 -1.3308 -0.1272
  764WAT      O 2502   3.558   3.480   1.382  0.1656  0.1359 -0.1691
  764WAT     H1 2503   3.518   3.551   1.332 -0.1214  0.7356  0.8717
  764WAT     H2 2504   3.597   3.524   1.458 -0.3027 -0.8556  0.6658
  765WAT      O 2505   4.837   3.055   4.905  0.0041 -0.0791  0.1688
  765WAT     H1 2506   4.811   2.963   4.913 -1.5799  0.4129  1.0990
  765WAT     H2 2507   4.927   3.058   4.938 -0.4401 -1.0626  1.5321
  766WAT      O 2508   2.268   4.517   4.793 -0.2590 -0.0662 -0.3450
  766WAT     H1 2509   2.193   4.567   4.826  1.0847  1.7705  0.0382
  766WAT     H2 2510   2.267   4.531   4.699  0.1026  0.6909 -0.2411
  767WAT      O 2511   0.065   0.268   3.591  0.2009 -0.1262 -0.0489
  767WAT     H1 2512   0.138   0.293   3.534  1.7925  0.9768  2.3332
  767WAT     H2 2513   0.006   0.218   3.533  1.5058  1.1758 -2.7058
  768WAT      O 2514   2.430   3.247   0.540 -0.1617  0.6049 -0.0719
  768WAT     H1 2515   2.407   3.155   0.528 -1.5951  0.4440  2.9341
  768WAT     H2 2516   2.520   3.254   0.509 -0.1902 -1.6676 -0.8375
  769WAT      O 2517   0.028   1.379   3.330  0.1835  0.0121 -0.2421
  769WAT     H1 2518   0.024   1.320   3.254 -1.7245 -0.6643  0.3321
  769WAT     H2 2519  -0.039   1.445   3.314 -1.2767 -0.9490  1.4295
  770WAT      O 2520   2.431   2.384   0.593  0.2076 -0.1050 -0.0496
  770WAT     H1 2521   2.462   2.382   0.503 -0.2335  0.0909 -0.2124
  770WAT     H2 2522   2.339   2.409   0.585  0.1658 -0.0955  0.4545
  771WAT      O 2523   3.034   4.661   0.616  0.1632 -0.2893 -0.2158
  771WAT     H1 2524   3.028   4.697   0.705 -0.8225 -0.4722 -0.1894
  771WAT     H2 2525   3.111   4.703   0.578  0.2275  0.2752  0.5142
  772WAT      O 2526   2.212   3.424   0.510 -0.1282 -0.0581  0.4741
  772WAT     H1 2527   2.298   3.387   0.529  0.2616  0.0183 -1.0010
  772WAT     H2 2528   2.212   3.435   0.415 -2.0842 -0.8297  0.3591
  773WAT      O 2529   1.550   3.687   4.976  0.1301  0.3887 -0.4225
  773WAT     H1 2530   1.567   3.738   5.055  0.3324  1.7079 -1.2833
  773WAT     H2 2531   1.469   3.639   4.996  1.9194 -2.0247  1.8210
  774WAT      O 2532   0.629   3.825   2.290  0.0738  0.4223 -0.1965
  774WAT     H1 2533   0.606   3.806   2.199 -0.2269  2.7874 -0.6691
  774WAT     H2 2534   0.715   3.867   2.285  0.2198  0.2474  0.6552
  775WAT      O 2535   3.601   3.023   4.471  0.4032  0.4362 -0.5663
  775WAT     H1 2536   3.511   2.992   4.484  0.3276  0.0078 -1.9990
  775WAT     H2 2537   3.613   3.025   4.376  1.8049  0.8001 -0.4090
  776WAT      O 2538   0.148   0.929   3.163 -0.8461 -0.4269  0.0619
  776WAT     H1 2539   0.182   0.944   3.251  1.0001 -1.8589 -0.3535
  776WAT     H2 2540   0.181   1.003   3.112  0.4652 -1.0399 -0.0092
  777WAT      O 2541   0.267   1.187   4.446  0.0997  0.2413 -0.0489
  777WAT     H1 2542   0.265   1.152   4.357 -0.3168 -0.4156  0.2142
  777WAT     H2 2543   0.361   1.200   4.465  0.3017 -1.1311 -0.0075
  778WAT      O 2544   2.404   3.381   1.816 -0.1454  0.0418 -0.7538
  778WAT     H1 2545   2.460   3.378   1.738  1.2649 -0.0843  0.2264
  778WAT     H2 2546   2.352   3.461   1.805  1.8365  1.4282 -0.6722
  779WAT      O 2547   2.271   0.958   0.114 -0.6284  0.0114  0.0418
  779WAT     H1 2548   2.311   0.989   0.195 -1.7711  0.3600  0.4976
  779WAT     H2 2549   2.339   0.969   0.048 -0.4375  1.9704  0.5038
  780WAT      O 2550   1.026   3.207   5.561  0.3224  0.4599  0.2950
  780WAT     H1 2551   0.974   3.267   5.507 -0.0054 -0.2446 -0.1804
  780WAT     H2 2552   0.993   3.120   5.539  1.5005  0.0171  0.1978
  781WAT      O 2553   4.929   4.018   3.670  0.2696 -0.2827  0.1727
  781WAT     H1 2554   4.868   4.001   3.742 -2.8460  0.7000 -2.0239
  781WAT     H2 2555   4.912   4.108   3.645  1.4427 -0.5237 -1.6535
  782WAT      O 2556   3.415   3.842   0.426 -0.3456  0.5183  0.5463
  782WAT     H1 2557   3.373   3.880   0.503  1.4534 -0.9540  2.3602
  782WAT     H2 2558   3.490   3.793   0.461  0.8344  0.1775 -2.1933
  783WAT      O 2559   0.767   3.268   3.818 -0.2061 -0.3434  0.0088
  783WAT     H1 2560   0.685   3.269   3.769  0.0641  0.0426 -0.4425
  783WAT     H2 2561   0.765   3.185   3.866  0.5346 -1.8176 -2.3920
  784WAT      O 2562   0.024   1.475   3.700 -0.2695 -0.3896  0.0885
  784WAT     H1 2563   0.086   1.441   3.765 -2.3866 -1.0483  1.8947
  784WAT     H2 2564   0.074   1.480   3.619  1.7306 -2.2633  1.1123
  785WAT      O 2565   2.276   0.169   5.592  0.1194  0.1176  0.2442
  785WAT     H1 2566   2.309   0.114   5.520  0.4364 -1.5204  1.5752
  785WAT     H2 2567   2.351   0.222   5.618  0.1642  0.3045 -0.2569
  786WAT      O 2568   4.911   4.280   3.948  0.0515 -0.0133 -0.3170
  786WAT     H1 2569   4.990   4.264   3.896  0.8600 -0.0093  0.8699
  786WAT     H2 2570   4.923   4.226   4.026 -0.8066  0.5090  0.1866
  787WAT      O 2571   3.627   2.455   2.945  0.0636 -0.4794 -0.5215
  787WAT     H1 2572   3.693   2.512   2.985  1.5507 -1.8152 -0.9416
  787WAT     H2 2573   3.565   2.436   3.016  0.2392  0.6264 -0.0513
  788WAT      O 2574   2.959   4.144   4.085 -0.4127  0.2739 -0.5300
  788WAT     H1 2575   2.947   4.138   4.180 -1.6286 -0.9389 -0.7294
  788WAT     H2 2576   2.925   4.061   4.051  0.7791  0.3339 -1.9678
  789WAT      O 2577   2.487   2.408   0.336 -0.1807 -0.3854 -0.3380
  789WAT     H1 2578   2.548   2.403   0.263 -0.7019  1.2414 -0.9198
  789WAT     H2 2579   2.405   2.437   0.298 -0.2071  1.4535  0.9898
  790WAT      O 2580   3.250   5.416   2.089 -0.1851 -0.1434 -0.1828
  790WAT     H1 2581   3.264   5.425   1.995  1.1059 -0.5743 -0.0578
  790WAT     H2 2582   3.156   5.403   2.099 -0.2956 -0.3666 -1.4316
  791WAT      O 2583   3.399   4.979   0.372 -0.1063 -0.2727  0.1470
  791WAT     H1 2584   3.381   5.070   0.350 -1.0143  0.1088  2.1882
  791WAT     H2 2585   3.460   4.984   0.446 -0.2104 -1.3046  0.3213
  792WAT      O 2586   3.183   2.593   2.332  0.0429  0.4855 -0.0482
  792WAT     H1 2587   3.167   2.507   2.371 -0.6720  0.7318  0.2153
  792WAT     H2 2588   3.266   2.622   2.371  1.2560 -0.8476 -1.4851
  793WAT      O 2589   1.041   5.020   4.533  0.1632  0.2177 -0.0439
  793WAT     H1 2590   1.016   5.002   4.624 -0.9203 -0.4146 -0.4573
  793WAT     H2 2591   0.959   5.036   4.487  0.7251  0.9167 -0.8504
  794WAT      O 2592   3.922   2.385   2.555  0.6310  0.6708 -0.0869
  794WAT     H1 2593   3.977   2.431   2.618 -0.8960  1.0190  1.0653
  794WAT     H2 2594   3.964   2.401   2.471  3.0117 -0.2065  0.8450
  795WAT      O 2595   1.707   1.724   2.213 -0.3105  0.0457 -0.6391
  795WAT     H1 2596   1.624   1.680   2.197 -0.0669 -0.8391  0.3657
  795WAT     H2 2597   1.739   1.748   2.126 -1.9169  1.0064 -0.9980
  796WAT      O 2598   3.512   3.457   3.075 -0.2273  0.2170  0.1458
  796WAT     H1 2599   3.436   3.497   3.033 -0.3130 -0.2652 -0.1601
  796WAT     H2 2600   3.505   3.364   3.055  2.3210  0.5418 -2.9595
  797WAT      O 2601   2.424   4.502   5.046 -0.2700  0.4367 -0.2977
  797WAT     H1 2602   2.367   4.527   4.973 -0.8214  1.4781  0.4521
  797WAT     H2 2603   2.367   4.509   5.123  1.1621  2.8482  0.6576
  798WAT      O 2604   3.822   2.743   1.975 -0.5665 -0.9754 -0.1628
  798WAT     H1 2605   3.824   2.718   1.883  0.9842  0.5837 -0.6093
  798WAT     H2 2606   3.909   2.718   2.009  0.4030  1.9837 -0.2029
  799WAT      O 2607   1.832   2.028   1.073 -0.0424 -0.2188 -0.9904
  799WAT     H1 2608   1.829   2.105   1.015 -0.0251  1.2130  0.8186
  799WAT     H2 2609   1.769   1.967   1.034 -2.4212  1.9512 -0.8713
  800WAT      O 2610   0.884   3.379   4.048  0.3547 -0.0383 -0.1387
  800WAT     H1 2611   0.970   3.366   4.008  0.5205  4.2650 -1.6776
  800WAT     H2 2612   0.822   3.356   3.979  0.3834 -0.0656 -0.1554
  801WAT      O 2613   3.272   2.324   5.333 -0.4661  0.0900  0.5195
  801WAT     H1 2614   3.248   2.269   5.258  2.3008 -0.3915 -0.1177
  801WAT     H2 2615   3.312   2.264   5.395  1.8239  1.1879  0.1936
  802WAT      O 2616   2.582   1.704   0.559 -0.7245  0.3144  0.0881
  802WAT     H1 2617   2.519   1.674   0.625 -0.7763  1.7529  0.7248
  802WAT     H2 2618   2.652   1.639   0.561 -2.2421 -1.4503 -0.7827
  803WAT      O 2619   2.107   2.476   0.476 -0.1677  0.2525  0.6455
  803WAT     H1 2620   2.166   2.488   0.401 -0.8883  0.3327  0.0806
  803WAT     H2 2621   2.029   2.528   0.454 -0.6377 -0.2180  1.1675
  804WAT      O 2622   2.908  -0.032   2.278 -0.0850  0.1980  0.1521
  804WAT     H1 2623   2.868  -0.005   2.360 -3.2998 -1.2414 -0.7500
  804WAT     H2 2624   2.885   0.038   2.216  0.1777  0.1257 -0.0288
  805WAT      O 2625   4.891   0.437   2.041  0.3706  1.1108 -0.2936
  805WAT     H1 2626   4.868   0.521   2.001 -1.9341 -0.2220 -2.0395
  805WAT     H2 2627   4.947   0.394   1.977 -1.6058 -0.1667 -1.2812
  806WAT      O 2628   1.480   0.813   0.875 -0.6478 -0.3367 -0.3030
  806WAT     H1 2629   1.405   0.858   0.915  0.4986  0.9775  0.4625
  806WAT     H2 2630   1.512   0.754   0.944 -0.2335  0.0124 -0.1968
  807WAT      O 2631   2.959   3.086   1.377  0.3820  0.2528  0.3421
  807WAT     H1 2632   2.953   3.070   1.283 -0.9567  0.6804  0.3249
  807WAT     H2 2633   3.050   3.112   1.391  0.2375  1.7658 -1.1167
  808WAT      O 2634   3.623   4.829  -0.029 -0.5697 -0.3208 -0.0823
  808WAT     H1 2635   3.642   4.857   0.060  1.7588 -1.5287 -0.1087
  808WAT     H2 2636   3.573   4.748  -0.019  0.3157 -0.8511  0.1776
  809WAT      O 2637   2.640   3.637   4.388 -0.0270 -0.2716  0.3051
  809WAT     H1 2638   2.719   3.606   4.343  0.6368  0.1057  1.1830
  809WAT     H2 2639   2.663   3.724   4.419 -1.2929  0.4398 -0.6510
  810WAT      O 2640   2.956   3.639   5.796  0.1716  0.1067  0.4615
  810WAT     H1 2641   3.018   3.688   5.850  0.5299 -1.5238  1.6342
  810WAT     H2 2642   2.976   3.547   5.816 -1.1756 -0.4914 -0.8121
  811WAT      O 2643   1.422   0.897   2.796 -0.0655 -0.0489 -0.3690
  811WAT     H1 2644   1.386   0.823   2.846 -1.4649  1.3145  0.7449
  811WAT     H2 2645   1.425   0.866   2.706 -1.3586 -1.2131 -0.0436
  812WAT      O 2646   1.686   2.026   4.858 -0.5853  0.5659 -0.5127
  812WAT     H1 2647   1.615   2.080   4.823 -0.8803 -0.0472 -0.8897
  812WAT     H2 2648   1.672   1.940   4.818 -1.0798 -0.2379  1.2798
  813WAT      O 2649   2.349   1.183   1.987 -0.7429 -0.6833 -0.1050
  813WAT     H1 2650   2.286   1.180   1.915 -1.1953 -0.4400  0.2706
  813WAT     H2 2651   2.388   1.271   1.980 -0.4979 -0.8075 -0.2942
  814WAT      O 2652   3.661   5.367   5.672  0.0849 -0.1942 -0.1037
  814WAT     H1 2653   3.570   5.348   5.648 -0.1319 -0.4647  0.8995
  814WAT     H2 2654   3.663   5.359   5.767  0.5887  2.2364  0.1579
  815WAT      O 2655   3.072   2.377   1.546  0.2964 -0.3874  0.1443
  815WAT     H1 2656   3.009   2.343   1.608 -0.1631 -1.4509 -0.8870
  815WAT     H2 2657   3.090   2.305   1.486  0.3501  0.7405 -1.2675
  816WAT      O 2658   2.750   2.837   1.990 -0.1131  0.0577 -0.1466
  816WAT     H1 2659   2.707   2.756   1.963  1.5019 -1.1319  0.6685
  816WAT     H2 2660   2.700   2.906   1.947 -0.1522 -1.4839 -2.7533
  817WAT      O 2661   3.431   2.889   0.770  0.5543 -0.2466 -0.3140
  817WAT     H1 2662   3.339   2.889   0.799  0.3005 -2.0312 -0.9820
  817WAT     H2 2663   3.431   2.944   0.691 -0.0458 -0.5845 -0.5608
  818WAT      O 2664   2.980   4.129   0.687  0.5954 -0.0827  0.0971
  818WAT     H1 2665   3.064   4.136   0.732  1.4688  0.5161 -1.5290
  818WAT     H2 2666   2.945   4.218   0.688  0.2755 -0.2079  0.2203
  819WAT      O 2667   1.688   3.810   1.512  0.0495  0.8770 -0.4884
  819WAT     H1 2668   1.721   3.843   1.429  2.1284  0.8274  0.2789
  819WAT     H2 2669   1.700   3.716   1.507  0.5702  0.9120  0.0205
  820WAT      O 2670   0.821   0.307   3.297 -0.1935 -0.9349  0.1674
  820WAT     H1 2671   0.897   0.277   3.247 -0.0173 -0.8725  0.3930
  820WAT     H2 2672   0.841   0.282   3.388 -0.6978 -1.4162  0.1461
  821WAT      O 2673   2.189   0.583   2.273  0.4502  0.0836  0.1666
  821WAT     H1 2674   2.217   0.550   2.358  2.6861  1.4227  0.0244
  821WAT     H2 2675   2.221   0.673   2.271 -2.5922  1.2738 -0.7390
  822WAT      O 2676   3.004   2.543   1.060  0.4252 -0.0113 -0.9524
  822WAT     H1 2677   3.087   2.579   1.091 -0.0003  2.5448 -2.4421
  822WAT     H2 2678   3.010   2.547   0.965 -1.2850 -0.0612 -1.0971
  823WAT      O 2679   1.564   2.122   5.435  0.0664  0.2731 -0.0138
  823WAT     H1 2680   1.517   2.055   5.385 -1.2963  2.0168 -1.1956
  823WAT     H2 2681   1.515   2.127   5.517 -0.8340  0.8910 -0.5620
  824WAT      O 2682   3.205   4.133   0.823  0.0316  0.1027 -0.3382
  824WAT     H1 2683   3.288   4.178   0.809 -1.0545  2.0225 -0.9092
  824WAT     H2 2684   3.190   4.139   0.917  0.0721  0.5922 -0.3641
  825WAT      O 2685   2.493   3.296   0.900 -0.0806  0.0308 -0.3569
  825WAT     H1 2686   2.412   3.315   0.949  1.1531  2.0024  1.0516
  825WAT     H2 2687   2.505   3.201   0.910 -0.9147  0.0828  1.5369
  826WAT      O 2688   1.440   2.415   0.513 -0.2234 -0.9140  0.0170
  826WAT     H1 2689   1.473   2.419   0.424  1.6089  2.4330  0.7048
  826WAT     H2 2690   1.349   2.444   0.507 -0.3086 -1.3215 -0.7860
  827WAT      O 2691   2.770   3.960   5.789 -0.3193 -0.4168 -0.5096
  827WAT     H1 2692   2.754   3.896   5.859 -1.6239 -0.0361 -0.4283
  827WAT     H2 2693   2.775   3.908   5.709 -2.4788 -0.5689 -0.5951
  828WAT      O 2694   1.745   3.178   1.573  0.2838 -0.1155 -0.0526
  828WAT     H1 2695   1.722   3.218   1.490  0.6287  0.9517  0.3517
  828WAT     H2 2696   1.673   3.117   1.592 -1.3842  1.8934  0.3765
  829WAT      O 2697   1.007   3.679   2.433  0.1843 -0.0437  0.1107
  829WAT     H1 2698   1.036   3.717   2.351 -1.0858 -0.4562 -0.5681
  829WAT     H2 2699   1.030   3.744   2.500 -0.4289  1.1561 -0.8031
  830WAT      O 2700   0.286   5.254   2.681 -0.0736  0.0672 -0.7490
  830WAT     H1 2701   0.291   5.204   2.600 -2.4233  0.0664 -0.9657
  830WAT     H2 2702   0.325   5.339   2.660  2.4206 -1.0193 -0.8498
  831WAT      O 2703   3.638   2.733   2.545 -0.4362 -0.0085 -0.9081
  831WAT     H1 2704   3.705   2.687   2.597 -0.3976 -0.3814 -1.2773
  831WAT     H2 2705   3.644   2.824   2.573 -1.0551 -0.3531  0.4147
  832WAT      O 2706   0.060   3.242   2.603 -0.1806 -0.3542  0.2308
  832WAT     H1 2707   0.144   3.226   2.561  0.5542 -0.0687  1.5776
  832WAT     H2 2708  -0.003   3.198   2.545  0.8130 -0.1680 -1.0483
  833WAT      O 2709   4.015   5.304   5.353 -0.3610 -0.3262 -0.1586
  833WAT     H1 2710   3.946   5.358   5.316 -0.9390 -1.6336 -1.0663
  833WAT     H2 2711   3.975   5.261   5.429 -0.0595  0.1322  0.2608
  834WAT      O 2712   2.878   5.410   5.662  0.5232  0.1433 -0.2803
  834WAT     H1 2713   2.833   5.487   5.627  1.8410  1.0247 -0.0898
  834WAT     H2 2714   2.962   5.409   5.617  1.5909  0.3405  1.6032
  835WAT      O 2715   3.069   3.923   2.004  0.2075 -0.3423 -0.0394
  835WAT     H1 2716   2.999   3.866   1.973 -0.0078 -0.2119  0.2040
  835WAT     H2 2717   3.027   4.008   2.018  0.0996 -0.6250  1.4707
  836WAT      O 2718   4.306   0.437   2.093  0.0260 -0.2656 -0.0135
  836WAT     H1 2719   4.277   0.367   2.036  1.7785  2.0149 -4.1748
  836WAT     H2 2720   4.391   0.409   2.125 -0.9052 -1.4992  1.5286
  837WAT      O 2721   2.614   3.773   4.946 -0.1414 -0.6741  0.2198
  837WAT     H1 2722   2.535   3.826   4.958  0.3671  0.4681 -1.1375
  837WAT     H2 2723   2.659   3.815   4.873  1.3870 -1.7139  0.5289
  838WAT      O 2724   1.852   3.519   3.088 -0.5697 -0.1318 -0.0612
  838WAT     H1 2725   1.920   3.466   3.129  0.1988  0.8369 -0.0589
  838WAT     H2 2726   1.828   3.469   3.010 -0.4970 -0.9151  0.4006
  839WAT      O 2727   4.164   2.042   2.770  0.2931  0.8061  0.0121
  839WAT     H1 2728   4.109   1.964   2.770  0.5950  0.5474  1.6185
  839WAT     H2 2729   4.114   2.107   2.722  0.8286 -0.8414 -3.0718
  840WAT      O 2730   1.835   4.834   4.748  0.2300  0.0338  0.1840
  840WAT     H1 2731   1.766   4.898   4.769  1.3342  0.8374  1.5117
  840WAT     H2 2732   1.891   4.878   4.685  1.0222  0.4379  1.1392
  841WAT      O 2733   3.738   0.354   1.789  0.0847 -0.1058 -0.0988
  841WAT     H1 2734   3.673   0.284   1.790 -0.2396  0.1682 -0.9126
  841WAT     H2 2735   3.687   0.434   1.793  0.3783  0.1032 -0.4247
  842WAT      O 2736   4.335   0.642   4.073  0.2191 -0.1435  0.5018
  842WAT     H1 2737   4.338   0.698   3.995  2.8829 -0.9117 -0.0452
  842WAT     H2 2738   4.247   0.656   4.108 -0.9872  0.5072 -2.4284
  843WAT      O 2739   1.104   5.004   3.677  0.7695  0.0437 -0.4650
  843WAT     H1 2740   1.095   4.981   3.585  0.8621  0.8236 -0.6809
  843WAT     H2 2741   1.156   5.085   3.676  0.4542  0.2629  0.2447
  844WAT      O 2742   3.353   1.808   4.615 -0.1840  0.6593 -0.1748
  844WAT     H1 2743   3.418   1.853   4.560  2.6027 -0.1850  2.1929
  844WAT     H2 2744   3.328   1.874   4.681  0.7428  0.0424  0.8171
  845WAT      O 2745   1.035   3.058   4.989  0.2207  0.3883 -0.0423
  845WAT     H1 2746   1.125   3.055   5.020  0.2151 -0.4447 -0.0838
  845WAT     H2 2747   1.031   2.993   4.919 -0.4308  0.3494  0.0240
  846WAT      O 2748   2.570   0.060   1.966  0.2115 -0.3084  0.3068
  846WAT     H1 2749   2.623   0.129   2.005  0.3177 -0.9389  1.3162
  846WAT     H2 2750   2.531   0.014   2.041 -0.2847 -0.9954 -0.3575
  847WAT      O 2751   1.787   0.137   4.638  0.0423  0.3002 -0.2662
  847WAT     H1 2752   1.819   0.116   4.550 -3.0109  0.6496 -1.6348
  847WAT     H2 2753   1.759   0.229   4.631 -1.6151 -0.0949  0.5417
  848WAT      O 2754   1.678   1.767   4.758 -0.3935 -0.1457 -0.4098
  848WAT     H1 2755   1.747   1.704   4.779  0.4725  0.1427 -2.2038
  848WAT     H2 2756   1.635   1.730   4.681 -0.2170  1.1905 -1.1634
  849WAT      O 2757   4.611   4.481   4.273 -0.1106  0.1203  0.2380
  849WAT     H1 2758   4.569   4.554   4.319 -0.9719  0.2378 -0.6999
  849WAT     H2 2759   4.615   4.411   4.338 -1.5609  0.1810  0.4328
  850WAT      O 2760   4.902   1.670   3.893 -0.5763  0.1966 -0.0622
  850WAT     H1 2761   4.906   1.587   3.846 -0.5683  0.3890 -0.4050
  850WAT     H2 2762   4.890   1.736   3.824  0.5234  0.5892  0.0967
  851WAT      O 2763   0.023   3.723   4.463 -0.1945  0.1182  0.4746
  851WAT     H1 2764   0.108   3.756   4.492 -0.7723 -0.8806  3.7143
  851WAT     H2 2765   0.042   3.636   4.427  0.5890  1.5267 -2.8812
  852WAT      O 2766   0.888   2.575   4.202  0.4279 -0.2809 -0.3197
  852WAT     H1 2767   0.982   2.587   4.216  0.1875  0.1020  1.0821
  852WAT     H2 2768   0.870   2.487   4.235 -0.0918  0.5176  1.6566
  853WAT      O 2769   3.742   1.582   3.879  0.0010  1.0058 -0.6016
  853WAT     H1 2770   3.792   1.589   3.961 -1.3225  1.7020  0.1952
  853WAT     H2 2771   3.804   1.609   3.811  2.1513 -2.5724 -0.3311
  854WAT      O 2772   3.217   3.734   5.624 -0.3034 -0.2843 -1.1204
  854WAT     H1 2773   3.248   3.709   5.711 -1.5063 -0.5436 -0.7440
  854WAT     H2 2774   3.224   3.829   5.622 -1.9472 -0.1026 -0.0395
  855WAT      O 2775   4.207   4.379   4.441  0.5930  0.0531 -1.2100
  855WAT     H1 2776   4.217   4.345   4.530 -0.9768  0.1204 -0.9776
  855WAT     H2 2777   4.291   4.421   4.422  1.0337 -0.1474  0.1560
  856WAT      O 2778   0.943   0.570   4.375  0.1455 -0.1762  0.4070
  856WAT     H1 2779   0.918   0.488   4.418  0.2774  0.7405  2.3360
  856WAT     H2 2780   1.038   0.565   4.366  0.0460 -0.6667 -0.4515
  857WAT      O 2781   4.702   5.272   4.400 -0.2918  0.1815 -0.2439
  857WAT     H1 2782   4.760   5.198   4.381 -2.0305 -1.2064 -0.3172
  857WAT     H2 2783   4.744   5.316   4.474  0.5503 -1.1313  0.0986
  858WAT      O 2784   4.656   3.615   2.214  0.2726  0.3443 -0.4037
  858WAT     H1 2785   4.628   3.705   2.231 -0.1624  0.2695 -0.6927
  858WAT     H2 2786   4.603   3.588   2.139 -1.2318 -0.9286  1.0642
  859WAT      O 2787   1.934   3.388   5.789 -0.1144  0.7226 -0.0801
  859WAT     H1 2788   1.901   3.383   5.699  1.2653 -1.5139 -0.5414
  859WAT     H2 2789   2.006   3.451   5.785  1.2320 -0.8219 -1.0412
  860WAT      O 2790   0.767   5.236   4.723  0.3831 -0.5726 -0.5576
  860WAT     H1 2791   0.689   5.198   4.763 -0.3156  0.9196 -0.4295
  860WAT     H2 2792   0.839   5.180   4.752 -0.2985 -0.4031  1.5752
  861WAT      O 2793   3.072   3.785   4.181 -0.2359  0.5939  0.1539
  861WAT     H1 2794   3.022   3.821   4.108  0.4281  0.8189 -0.2008
  861WAT     H2 2795   3.163   3.791   4.152 -0.1004 -1.7474 -0.0965
  862WAT      O 2796   3.429   5.161   3.278  0.7993 -0.4923 -0.1533
  862WAT     H1 2797   3.452   5.247   3.314  0.7917 -0.7603  0.5097
  862WAT     H2 2798   3.341   5.173   3.241  0.4136 -0.4385  0.7596
  863WAT      O 2799   3.480   1.610   2.956  0.9258 -0.8825  0.6389
  863WAT     H1 2800   3.443   1.615   3.044  0.1622 -1.6561  0.3738
  863WAT     H2 2801   3.569   1.577   2.969  1.4556  0.7185  1.2546
  864WAT      O 2802   2.544   1.300   5.441  0.2844 -0.3650  0.2876
  864WAT     H1 2803   2.488   1.226   5.415 -2.1382  0.9188  1.4852
  864WAT     H2 2804   2.526   1.368   5.375 -1.4337  0.8594  1.9219
  865WAT      O 2805   1.892   1.829   4.958 -0.4492 -0.0547 -0.6452
  865WAT     H1 2806   1.854   1.889   4.894 -1.5457 -1.5518 -1.4419
  865WAT     H2 2807   1.986   1.828   4.936 -0.4127  1.3217 -0.6275
  866WAT      O 2808   2.327   1.423   5.728 -0.0045  0.2354 -0.4481
  866WAT     H1 2809   2.292   1.459   5.647  0.9396 -0.2027 -1.0660
  866WAT     H2 2810   2.325   1.328   5.716 -1.4645  0.0685  0.7412
  867WAT      O 2811   2.800   4.894   3.070 -0.4937 -0.1884  0.4293
  867WAT     H1 2812   2.886   4.856   3.052 -0.5605 -0.5750  0.8913
  867WAT     H2 2813   2.742   4.818   3.078 -0.9499  0.0782 -0.2105
  868WAT      O 2814   4.093   2.554   3.697  0.9951  0.4405 -0.1950
  868WAT     H1 2815   4.045   2.518   3.622 -1.3216  0.3131  1.2163
  868WAT     H2 2816   4.171   2.500   3.703  0.1412 -1.0087 -1.2092
  869WAT      O 2817   3.317   5.522   4.435 -0.0560 -0.1458  0.0112
  869WAT     H1 2818   3.252   5.554   4.372  0.4029 -0.9380 -0.8830
  869WAT     H2 2819   3.395   5.574   4.418 -0.7335  1.5921  1.8384
  870WAT      O 2820   4.821   3.659   5.079 -0.0503  0.4910  0.2134
  870WAT     H1 2821   4.832   3.674   4.985 -0.4222  1.7326  0.3574
  870WAT     H2 2822   4.749   3.595   5.084 -0.7056  1.1648 -0.3276
  871WAT      O 2823   2.133   2.279   5.567  0.4502  0.0334 -0.2985
  871WAT     H1 2824   2.162   2.286   5.658  1.2246 -1.0814 -0.4339
  871WAT     H2 2825   2.204   2.318   5.516  0.7564 -0.8015 -0.5156
  872WAT      O 2826   3.650   1.210   1.136  0.3759 -0.1500 -0.5819
  872WAT     H1 2827   3.608   1.213   1.050 -0.8016 -1.9300 -0.1260
  872WAT     H2 2828   3.730   1.159   1.123  0.6050  0.2531 -0.7653
  873WAT      O 2829   1.746   0.540   3.907  0.7960 -0.2887  0.2285
  873WAT     H1 2830   1.807   0.466   3.907  1.5568  0.3187 -0.9051
  873WAT     H2 2831   1.737   0.563   4.000 -0.4628 -2.5901  0.7478
  874WAT      O 2832   2.610   2.518   4.318  0.4595 -0.1334 -0.0046
  874WAT     H1 2833   2.663   2.443   4.290  0.6676  0.2059 -0.5225
  874WAT     H2 2834   2.560   2.484   4.392 -0.0405 -1.0261 -0.7239
  875WAT      O 2835   0.280   0.297   3.435  0.0679 -0.6503  0.2276
  875WAT     H1 2836   0.289   0.333   3.347 -0.6998  1.2655  0.8710
  875WAT     H2 2837   0.370   0.280   3.463  0.4473  0.4526 -0.2701
  876WAT      O 2838   1.440   4.033   4.183 -0.1431 -0.4209 -0.2090
  876WAT     H1 2839   1.453   4.096   4.254 -3.5893  0.8163 -0.5067
  876WAT     H2 2840   1.400   3.957   4.224 -0.5844 -0.3943 -0.5862
  877WAT      O 2841   4.698   3.806   4.083 -0.0249  0.0334 -0.6002
  877WAT     H1 2842   4.744   3.745   4.025  0.3568  0.4537 -0.7514
  877WAT     H2 2843   4.690   3.760   4.166 -1.2633 -0.8839 -1.1920
  878WAT      O 2844   1.593   5.187   2.650  0.1992 -0.5442  0.1660
  878WAT     H1 2845   1.655   5.227   2.589  0.6561 -2.4851 -0.7180
  878WAT     H2 2846   1.600   5.093   2.633 -1.6389 -0.9467  1.3620
  879WAT      O 2847   1.781   4.553   5.342  0.1904  0.0549  0.4680
  879WAT     H1 2848   1.742   4.591   5.420 -0.9512 -1.3427  0.5985
  879WAT     H2 2849   1.795   4.461   5.363  2.2351  0.1656 -0.1021
  880WAT      O 2850   1.929   0.756   4.709  0.0964 -0.1723  1.1375
  880WAT     H1 2851   1.996   0.804   4.661 -0.0973 -1.1353 -0.1283
  880WAT     H2 2852   1.891   0.821   4.769 -0.8414  1.5721 -1.1868
  881WAT      O 2853   2.980   1.579   5.597  0.0304 -0.3262 -0.1028
  881WAT     H1 2854   2.958   1.519   5.525  1.1439 -1.3114  0.3461
  881WAT     H2 2855   3.069   1.606   5.579  0.3570 -0.6502  0.9478
  882WAT      O 2856   2.821   5.423   4.616  0.2017 -0.0617 -0.1723
  882WAT     H1 2857   2.908   5.392   4.638  0.3176 -1.5715 -2.4480
  882WAT     H2 2858   2.836   5.497   4.557 -0.0688 -0.2619 -0.4910
  883WAT      O 2859   1.252   3.630   5.672 -0.8323 -0.2995  0.3407
  883WAT     H1 2860   1.201   3.581   5.737 -0.8418 -1.7053 -0.6817
  883WAT     H2 2861   1.198   3.627   5.593  0.1745 -0.5369 -0.3453
  884WAT      O 2862   1.975   1.669   0.967 -0.0768  0.2437  0.9024
  884WAT     H1 2863   2.017   1.583   0.973 -1.6241 -0.4752  2.4922
  884WAT     H2 2864   2.034   1.721   0.912  0.0149 -2.3476 -1.7231
  885WAT      O 2865   1.811   3.975   5.312  0.0515 -0.4565  0.1965
  885WAT     H1 2866   1.862   3.963   5.392 -1.0765 -0.8300  0.8817
  885WAT     H2 2867   1.827   3.897   5.260 -0.2144 -0.8112  0.6427
  886WAT      O 2868   0.279   4.609   3.033  0.5882 -0.3702 -0.4053
  886WAT     H1 2869   0.356   4.596   3.089 -0.2099 -3.4598  0.1108
  886WAT     H2 2870   0.292   4.550   2.959 -1.4711 -1.3440 -0.0566
  887WAT      O 2871   4.094   1.427   4.903  0.2726 -0.3531  0.3175
  887WAT     H1 2872   4.136   1.365   4.962 -0.1574 -0.5829  0.3906
  887WAT     H2 2873   4.125   1.403   4.816  0.3115 -0.5033  0.3727
  888WAT      O 2874   1.011   0.483   1.685  0.1175 -0.3636  0.1067
  888WAT     H1 2875   1.059   0.438   1.754 -1.2567 -0.8833  0.7409
  888WAT     H2 2876   1.079   0.532   1.638  1.1644 -0.4910  1.4215
  889WAT      O 2877   3.829   5.522   4.184 -0.4531 -0.3838 -0.7275
  889WAT     H1 2878   3.818   5.473   4.265 -1.9913  1.0259 -0.0184
  889WAT     H2 2879   3.791   5.465   4.117  1.9281 -2.0948 -0.7526
  890WAT      O 2880   1.120   5.331   4.453 -0.6159 -0.1929  0.0688
  890WAT     H1 2881   1.192   5.269   4.445  0.6278  1.1518  0.6027
  890WAT     H2 2882   1.145   5.405   4.398 -0.8339  0.9575  1.4617
  891WAT      O 2883   0.772   0.468   4.854  0.1329  0.3758 -0.1328
  891WAT     H1 2884   0.701   0.418   4.814 -1.3333  0.1483  2.5080
  891WAT     H2 2885   0.812   0.516   4.781 -1.6670 -0.7461 -1.9613
  892WAT      O 2886   3.193   5.556   3.269  0.2206  0.6667 -0.1030
  892WAT     H1 2887   3.223   5.504   3.194  0.6794  0.5304  0.1727
  892WAT     H2 2888   3.098   5.541   3.271  0.4753 -1.0297  0.6128
  893WAT      O 2889   3.662   0.104   4.059 -0.2544 -0.1060 -0.1191
  893WAT     H1 2890   3.751   0.124   4.087 -0.6205 -0.0037  1.0625
  893WAT     H2 2891   3.644   0.018   4.096 -0.8617  0.1589  0.2237
  894WAT      O 2892   3.090   0.897   4.629  0.2538 -0.3965  0.1452
  894WAT     H1 2893   3.131   0.925   4.547  0.0894  0.0207  0.2021
  894WAT     H2 2894   2.997   0.918   4.617 -0.2061 -2.6081 -0.5314
  895WAT      O 2895   2.735   1.396   2.323  0.1876  0.6814 -0.5736
  895WAT     H1 2896   2.822   1.361   2.339  0.1038  0.7890  0.1689
  895WAT     H2 2897   2.750   1.474   2.270  0.8806  2.6354  2.2876
  896WAT      O 2898   0.777   1.332   2.877 -0.3374  0.3093  0.0399
  896WAT     H1 2899   0.837   1.405   2.888 -0.7287  0.3991  2.0092
  896WAT     H2 2900   0.817   1.277   2.811  0.5610  1.6996 -0.6112
  897WAT      O 2901   2.690   5.270   1.466 -0.0378 -0.0808 -0.0997
  897WAT     H1 2902   2.748   5.273   1.390  0.9864  0.9780  0.6910
  897WAT     H2 2903   2.746   5.295   1.540 -1.2066 -0.2725  0.8816
  898WAT      O 2904   0.321   0.394   3.816 -0.5710 -0.0806 -1.0898
  898WAT     H1 2905   0.358   0.465   3.869 -0.3528 -0.8532 -0.1680
  898WAT     H2 2906   0.295   0.435   3.734  0.8205  0.8020 -1.1172
  899WAT      O 2907   4.463   1.374   3.779  0.3311  0.3414  0.8798
  899WAT     H1 2908   4.445   1.420   3.861 -0.0769 -0.9479  1.5471
  899WAT     H2 2909   4.467   1.443   3.713 -1.5790  1.2281  1.6139
  900WAT      O 2910   1.623   2.587   2.710  0.2122 -0.1712  0.9630
  900WAT     H1 2911   1.625   2.497   2.680 -0.6524  0.1814 -0.1918
  900WAT     H2 2912   1.573   2.584   2.792  0.4828 -0.7779  1.1094
  901WAT      O 2913   4.812   0.017   4.840  0.0873  0.4390 -0.3657
  901WAT     H1 2914   4.830   0.104   4.806 -0.3991  0.5803 -0.2714
  901WAT     H2 2915   4.896  -0.013   4.875  0.8623 -0.1108 -2.5126
  902WAT      O 2916   4.280   1.124   2.014 -0.7252 -0.4942  0.4441
  902WAT     H1 2917   4.225   1.164   1.946  0.8699 -0.1147 -0.6902
  902WAT     H2 2918   4.219   1.072   2.066 -2.0361 -0.8347 -1.3030
  903WAT      O 2919   3.347   5.169   2.157 -0.2960  0.2776  0.4202
  903WAT     H1 2920   3.305   5.250   2.129 -0.5566  0.3558  1.0262
  903WAT     H2 2921   3.298   5.099   2.112 -1.1167  0.3644  1.1662
  904WAT      O 2922   1.586   0.892   4.232 -0.0927  0.0735 -0.0244
  904WAT     H1 2923   1.532   0.943   4.293  0.2366  0.8145 -0.3454
  904WAT     H2 2924   1.675   0.923   4.247  0.0031  0.2081 -0.8248
  905WAT      O 2925   4.272   2.376   3.430  0.4020 -0.1697 -0.1302
  905WAT     H1 2926   4.304   2.367   3.519 -0.4167 -1.9281  0.0317
  905WAT     H2 2927   4.299   2.296   3.386 -1.6898 -0.6731 -0.6215
  906WAT      O 2928   4.654   4.278   4.436  0.2329 -0.2686  0.1169
  906WAT     H1 2929   4.643   4.187   4.463  0.8609 -1.0261 -1.9624
  906WAT     H2 2930   4.745   4.299   4.457  0.0943 -0.1247  0.5763
  907WAT      O 2931   4.769   4.025   4.795 -0.0251  0.2924  0.0192
  907WAT     H1 2932   4.847   4.014   4.740 -1.0071 -0.8898 -1.2311
  907WAT     H2 2933   4.795   3.993   4.881  0.6815 -0.8361 -0.5808
  908WAT      O 2934   0.411   0.229   4.025  0.1694  0.1786  0.0131
  908WAT     H1 2935   0.366   0.278   3.957  0.2773  0.9760  0.5005
  908WAT     H2 2936   0.383   0.139   4.013  0.5846  0.2138 -1.4097
  909WAT      O 2937   1.615   4.621   5.553 -0.0642  0.5566 -0.3099
  909WAT     H1 2938   1.556   4.564   5.504 -0.6244 -0.2121  1.1938
  909WAT     H2 2939   1.570   4.638   5.635  1.1407  1.2186  0.2517
  910WAT      O 2940   4.714   1.024   2.673  0.1632  0.5747 -0.3204
  910WAT     H1 2941   4.792   1.028   2.728  0.9858  0.8015 -1.4630
  910WAT     H2 2942   4.697   0.930   2.662 -0.8915  0.5102  1.4794
  911WAT      O 2943   2.672   3.873   3.317  0.9928  0.4264  0.0999
  911WAT     H1 2944   2.728   3.842   3.388 -0.6967 -1.6292  0.6306
  911WAT     H2 2945   2.712   3.838   3.238  0.8992 -0.3746  0.4002
  912WAT      O 2946   3.890   4.305   5.356  0.2466 -0.0976  0.3086
  912WAT     H1 2947   3.852   4.217   5.347  0.4261 -0.0433 -1.3509
  912WAT     H2 2948   3.938   4.318   5.274  2.1499  0.6449  1.4637
  913WAT      O 2949   2.126   5.044   3.706  0.2493  0.2169  0.0499
  913WAT     H1 2950   2.183   5.105   3.660 -0.8305  0.8407 -0.5062
  913WAT     H2 2951   2.128   5.073   3.797 -0.4678  1.2684 -0.2580
  914WAT      O 2952   4.338   2.478   4.245 -0.3163 -0.2871 -0.3687
  914WAT     H1 2953   4.362   2.456   4.335  1.5851  1.2443 -0.4290
  914WAT     H2 2954   4.322   2.572   4.246  1.5259  0.1111 -1.9400
  915WAT      O 2955   4.580   3.839   2.596  0.2236  0.4443  0.4746
  915WAT     H1 2956   4.515   3.797   2.653 -0.7978 -0.2270 -1.1044
  915WAT     H2 2957   4.562   3.933   2.604 -1.4672  0.2532 -0.4414
  916WAT      O 2958   2.769   0.024   1.111  0.2230  0.3375  0.6802
  916WAT     H1 2959   2.770   0.118   1.092  0.3545 -0.2018 -2.4880
  916WAT     H2 2960   2.750  -0.018   1.027 -1.3506 -2.4625  2.2543
  917WAT      O 2961   0.449   1.874   2.845 -0.5346  0.5336  1.0474
  917WAT     H1 2962   0.492   1.958   2.827  0.3294 -0.2069 -0.5795
  917WAT     H2 2963   0.519   1.818   2.879 -0.5575 -0.1807 -0.0264
  918WAT      O 2964   3.229   0.874   4.354  0.0787  0.1946 -0.0109
  918WAT     H1 2965   3.145   0.918   4.342  0.5000  0.8546 -0.7044
  918WAT     H2 2966   3.231   0.806   4.287 -0.6772 -1.0762  1.2248
  919WAT      O 2967   3.282   1.177   2.415  0.3313  0.1522 -0.2216
  919WAT     H1 2968   3.242   1.177   2.502  1.5853 -2.5643  0.4714
  919WAT     H2 2969   3.365   1.130   2.427  0.6436 -0.1157 -2.8388
  920WAT      O 2970   3.118   2.355   3.134  0.3283  0.1938 -0.0172
  920WAT     H1 2971   3.121   2.262   3.110  1.6206 -0.0519  0.9752
  920WAT     H2 2972   3.056   2.359   3.206 -0.4000  0.2583 -0.6372
  921WAT      O 2973   2.636   1.964   5.206 -0.5605  0.4333 -0.1996
  921WAT     H1 2974   2.631   1.884   5.259 -1.7865  1.0031  0.5840
  921WAT     H2 2975   2.620   2.035   5.268 -0.3227  1.2378 -1.0412
  922WAT      O 2976   1.330   0.122   3.214  0.0221 -0.2955 -0.0411
  922WAT     H1 2977   1.403   0.180   3.192 -0.2137 -0.1299 -0.3814
  922WAT     H2 2978   1.347   0.042   3.165  1.2149 -1.1546  1.6528
  923WAT      O 2979   1.928   3.091   5.252  0.0284 -0.3478 -0.0854
  923WAT     H1 2980   1.931   3.171   5.198 -1.4118  0.0307  0.3469
  923WAT     H2 2981   1.991   3.107   5.322 -1.1100  0.9655  0.6888
  924WAT      O 2982   1.707   4.581   4.724  0.1372  0.3191  0.0140
  924WAT     H1 2983   1.758   4.652   4.763 -1.3733  1.6372 -0.2843
  924WAT     H2 2984   1.690   4.611   4.634 -0.1749 -0.6197 -0.2474
  925WAT      O 2985   1.966   5.563   4.513 -0.2211 -0.2413  0.2897
  925WAT     H1 2986   2.000   5.487   4.466  0.4428 -1.2385  2.2630
  925WAT     H2 2987   1.906   5.605   4.451  2.3987 -0.0286 -2.3333
  926WAT      O 2988   3.908   2.757   3.381 -0.0851  0.2829 -0.2902
  926WAT     H1 2989   3.994   2.777   3.418 -1.0378  2.4746  0.9145
  926WAT     H2 2990   3.887   2.670   3.415  1.4397 -0.1056 -0.2640
  927WAT      O 2991   3.870   2.154   4.518  0.2076  0.2258 -0.0194
  927WAT     H1 2992   3.854   2.106   4.599 -0.4703 -0.5997 -0.6231
  927WAT     H2 2993   3.965   2.145   4.503 -0.1981 -3.1364 -1.4000
  928WAT      O 2994   3.939   1.182   4.158 -0.2509 -0.5386 -0.2098
  928WAT     H1 2995   3.988   1.104   4.184  0.9580 -0.5937 -2.3470
  928WAT     H2 2996   3.858   1.148   4.119 -1.0361 -0.5447  1.3422
  929WAT      O 2997   2.892   5.421   4.302  0.2172  0.2629 -0.3397
  929WAT     H1 2998   2.960   5.408   4.236  0.2275 -0.7819 -0.1461
  929WAT     H2 2999   2.913   5.505   4.342 -1.0573  2.0606 -3.1350
  930WAT      O 3000   1.330   4.924   1.908  0.0305  0.1393  0.1659
  930WAT     H1 3001   1.352   5.014   1.932  0.3341 -0.3980  2.0975
  930WAT     H2 3002   1.414   4.878   1.905 -0.1127 -0.0730 -0.9090
  931WAT      O 3003   3.262   4.530   4.762 -0.0364  0.7171 -0.1709
  931WAT     H1 3004   3.334   4.591   4.781 -0.1905  0.6078  0.7902
  931WAT     H2 3005   3.264   4.467   4.834 -1.6685  1.2411  0.3723
  932WAT      O 3006   0.960   0.492   3.599  0.4547  0.9126 -0.9471
  932WAT     H1 3007   0.872   0.458   3.617 -0.0869  1.8697 -1.7037
  932WAT     H2 3008   0.993   0.519   3.685  0.2413  0.0444 -0.5778
  933WAT      O 3009   3.146   1.949   5.250 -0.3588  0.6177  0.0702
  933WAT     H1 3010   3.079   1.978   5.312  0.1183  2.9057 -0.4074
  933WAT     H2 3011   3.229   1.962   5.296 -0.1422 -2.6316  0.8354
  934WAT      O 3012   3.345   1.819   0.927  0.2121 -0.0305  0.7231
  934WAT     H1 3013   3.305   1.733   0.907 -1.7004  1.0392 -0.4509
  934WAT     H2 3014   3.292   1.853   0.999 -0.5504  1.0799 -0.3234
  935WAT      O 3015   2.855   0.026   4.512 -0.6033 -0.4466  0.1807
  935WAT     H1 3016   2.790   0.077   4.561 -0.5781 -0.1838 -0.0563
  935WAT     H2 3017   2.905   0.092   4.464 -0.0455 -0.6387  0.4995
  936WAT      O 3018   4.524   4.522   4.978  0.4816  0.0329 -0.0276
  936WAT     H1 3019   4.500   4.607   5.015  0.2871 -0.8220  1.8944
  936WAT     H2 3020   4.465   4.460   5.020  2.1925 -1.3649  0.4051
  937WAT      O 3021   2.549   0.169   3.799  0.5394 -0.8886  0.0922
  937WAT     H1 3022   2.470   0.185   3.852  0.0474 -1.1496 -0.5464
  937WAT     H2 3023   2.569   0.253   3.760  3.4225  0.5104  3.9217
  938WAT      O 3024   1.237   0.079   4.086 -0.4885 -0.4338  0.2218
  938WAT     H1 3025   1.207   0.153   4.139 -0.3857 -0.4504  0.3043
  938WAT     H2 3026   1.158   0.047   4.043 -0.4190  0.1168 -0.3121
  939WAT      O 3027   2.605   2.970   1.758 -0.0320  0.2836  0.0854
  939WAT     H1 3028   2.592   2.894   1.701 -0.6610  0.3084  0.1861
  939WAT     H2 3029   2.522   2.978   1.806  1.0305 -0.7421  2.2342
  940WAT      O 3030   4.838   5.226   3.685  0.2527 -0.1813  0.0147
  940WAT     H1 3031   4.932   5.220   3.667  0.1512 -1.5365 -0.1697
  940WAT     H2 3032   4.828   5.188   3.772  0.0721  1.5524  0.7808
  941WAT      O 3033   2.921   3.139   0.145  0.1446  0.2835 -0.1089
  941WAT     H1 3034   2.969   3.065   0.182 -0.4605 -0.1344 -0.1404
  941WAT     H2 3035   2.829   3.118   0.161 -0.0620  0.7448 -0.6464
  942WAT      O 3036   3.041   5.431   4.802  0.5114 -0.4446 -0.0504
  942WAT     H1 3037   2.999   5.401   4.883  0.6047 -1.7972 -0.4782
  942WAT     H2 3038   3.122   5.380   4.797  0.5200 -0.3548 -0.9807
  943WAT      O 3039   4.514   1.359   4.577 -0.1612  0.5281  0.5692
  943WAT     H1 3040   4.487   1.334   4.666  0.2431  1.3466  0.9399
  943WAT     H2 3041   4.580   1.427   4.591  1.5136 -0.8421 -0.3058
  944WAT      O 3042   2.777   1.781   5.563  0.6057 -0.3050 -0.0602
  944WAT     H1 3043   2.791   1.870   5.595 -1.1967 -1.0937  3.3507
  944WAT     H2 3044   2.864   1.740   5.568  1.1885  0.8216 -0.4171
  945WAT      O 3045   1.910   0.730   5.157 -0.3073  0.5462  0.4551
  945WAT     H1 3046   1.956   0.676   5.093  0.4000 -0.0800  1.4788
  945WAT     H2 3047   1.817   0.717   5.135 -0.1710 -1.1550  0.7191
  946WAT      O 3048   4.168   2.100   2.443  0.3284 -0.4268 -0.1297
  946WAT     H1 3049   4.253   2.061   2.426  0.7343  0.9116 -1.3208
  946WAT     H2 3050   4.106   2.042   2.399  0.8254 -0.3065 -1.0095
  947WAT      O 3051   1.447   2.517   1.378  0.1856  0.6667 -0.2031
  947WAT     H1 3052   1.379   2.509   1.311 -0.0189 -1.6642  0.1826
  947WAT     H2 3053   1.450   2.430   1.419  1.2285  1.6427  1.9247
  948WAT      O 3054   3.662   2.049   2.538 -0.6420  0.4169  0.1635
  948WAT     H1 3055   3.602   2.055   2.464 -1.0433 -0.8147  0.3529
  948WAT     H2 3056   3.711   1.968   2.522  0.4928  1.0554  0.3605
  949WAT      O 3057   2.986   5.224   0.294  0.6825 -0.9316 -0.6116
  949WAT     H1 3058   3.000   5.166   0.219  2.4813  0.9313 -1.8276
  949WAT     H2 3059   3.055   5.290   0.286 -1.3943  1.5558  0.5031
  950WAT      O 3060   4.290   1.784   4.342 -0.8358  0.3124  0.4568
  950WAT     H1 3061   4.227   1.800   4.272  0.6865 -1.0574 -1.3561
  950WAT     H2 3062   4.312   1.691   4.332 -0.6929  0.0369  2.9050
  951WAT      O 3063   1.869   2.436   4.882  0.4832  0.1525 -0.0789
  951WAT     H1 3064   1.782   2.423   4.844  0.8577  1.1629 -1.3702
  951WAT     H2 3065   1.851   2.467   4.971 -0.4500 -0.7853  0.0846
  952WAT      O 3066   0.209   1.675   3.277 -0.2370  0.1705  0.2529
  952WAT     H1 3067   0.274   1.739   3.247 -1.2084  0.5991 -1.0151
  952WAT     H2 3068   0.125   1.721   3.271 -0.7430 -0.5466  1.3634
  953WAT      O 3069   0.430   2.610   4.372 -0.1753  0.4338  0.5405
  953WAT     H1 3070   0.349   2.638   4.329 -1.2440 -1.1152  1.4398
  953WAT     H2 3071   0.485   2.688   4.373 -0.7173  0.9546 -2.1359
  954WAT      O 3072   2.141   0.572   5.747 -0.3797 -0.1550 -0.1700
  954WAT     H1 3073   2.054   0.591   5.713 -0.1613  1.2498 -0.0146
  954WAT     H2 3074   2.201   0.605   5.680  0.0621  2.6990  1.4333
  955WAT      O 3075   2.708   5.530   0.853 -0.3434  0.0436 -0.1336
  955WAT     H1 3076   2.722   5.586   0.777 -2.3137  0.9684  0.1097
  955WAT     H2 3077   2.696   5.442   0.816 -0.6589  0.3739 -0.8401
  956WAT      O 3078   0.855   0.174   4.228 -0.1278 -0.0812 -0.3961
  956WAT     H1 3079   0.829   0.132   4.147  0.6040  0.5191 -0.9621
  956WAT     H2 3080   0.887   0.103   4.284  0.2843 -0.3851 -1.0103
  957WAT      O 3081   0.321   0.690   3.959  0.1142  0.4651 -0.0787
  957WAT     H1 3082   0.339   0.732   4.043  1.0234 -2.6734  1.4595
  957WAT     H2 3083   0.226   0.695   3.950 -0.8195 -3.4005  3.8768
  958WAT      O 3084   2.117   5.159   4.934  0.4269 -0.1042  0.0439
  958WAT     H1 3085   2.058   5.125   5.001  1.2032 -0.5234  0.5249
  958WAT     H2 3086   2.172   5.222   4.980  0.8297 -0.2438 -0.2463
  959WAT      O 3087   3.098   5.040   3.644 -0.1589 -0.5530 -0.2928
  959WAT     H1 3088   3.110   5.135   3.656  2.7957 -0.8309 -0.2578
  959WAT     H2 3089   3.075   5.008   3.732  0.6663 -0.0635  0.1191
  960WAT      O 3090   2.935   2.133   4.425 -0.6834  0.0355  0.2547
  960WAT     H1 3091   3.018   2.086   4.414 -1.0274 -0.9409  1.5247
  960WAT     H2 3092   2.957   2.208   4.480 -0.4178  0.5064 -0.4820
  961WAT      O 3093   2.680   5.605   5.563  0.0865  0.5062  0.4832
  961WAT     H1 3094   2.606   5.624   5.622  1.2837 -0.7198  2.5079
  961WAT     H2 3095   2.730   5.686   5.561 -0.1208  0.6529  0.9586
  962WAT      O 3096   0.546   0.641   3.800  0.2203 -0.4577  0.0874
  962WAT     H1 3097   0.617   0.680   3.850  0.5737  1.5238 -1.8092
  962WAT     H2 3098   0.466   0.667   3.847  0.6293 -0.8684  1.0365
  963WAT      O 3099   2.404   2.135   5.625  0.3292  0.8732  0.3835
  963WAT     H1 3100   2.341   2.094   5.566  0.5369  0.2494  0.5863
  963WAT     H2 3101   2.422   2.068   5.691  3.7180 -0.3034 -1.4771
  964WAT      O 3102   3.577   2.359   1.660  0.3704 -0.3128 -0.6439
  964WAT     H1 3103   3.610   2.328   1.745 -2.7359  0.2231  0.8961
  964WAT     H2 3104   3.524   2.287   1.627 -1.6687  0.8865 -0.1407
  965WAT      O 3105   0.852   4.099   2.629 -0.4393 -0.3687  0.3062
  965WAT     H1 3106   0.830   4.135   2.544 -0.1728 -0.0437  0.3758
  965WAT     H2 3107   0.858   4.175   2.687  1.6950 -0.3593  0.1236
  966WAT      O 3108   3.744   1.742   4.414  0.0062  0.2949  0.1524
  966WAT     H1 3109   3.832   1.778   4.421 -0.5691  1.7885 -0.0430
  966WAT     H2 3110   3.753   1.652   4.446  0.9778  1.3784  3.3438
  967WAT      O 3111   3.971   1.846   1.901 -0.5857 -0.0960  0.4444
  967WAT     H1 3112   4.032   1.774   1.892 -0.7625 -0.2146  0.1768
  967WAT     H2 3113   3.899   1.824   1.842  0.1335  1.1057 -0.9266
  968WAT      O 3114   3.144   1.350   0.364  0.2892  0.7037  0.1249
  968WAT     H1 3115   3.165   1.421   0.424  0.0237 -0.1578  1.2664
  968WAT     H2 3116   3.125   1.275   0.421  2.2569 -0.7904 -1.0547
  969WAT      O 3117   3.084   0.316   2.204 -0.1521  0.1009  0.1214
  969WAT     H1 3118   3.136   0.259   2.148 -1.9927 -0.7920 -0.7672
  969WAT     H2 3119   3.135   0.396   2.211  1.3448 -0.7478 -0.6432
  970WAT      O 3120   1.523   0.805   3.696 -0.0094 -0.0623  0.2900
  970WAT     H1 3121   1.565   0.891   3.693  1.8411 -0.9325 -0.0805
  970WAT     H2 3122   1.438   0.822   3.737 -0.1917  2.1180 -0.8197
  971WAT      O 3123   1.845   4.984   2.815 -0.7153  0.5429  0.1017
  971WAT     H1 3124   1.871   5.075   2.801 -1.9284  0.8995  0.0359
  971WAT     H2 3125   1.769   4.971   2.758  0.0433 -0.8260 -0.6684
  972WAT      O 3126   2.561   3.327   5.438 -0.7225  0.0488  0.0725
  972WAT     H1 3127   2.642   3.313   5.389  0.0248  0.0684  1.2473
  972WAT     H2 3128   2.492   3.327   5.372  0.3360  1.0018 -1.0777
  973WAT      O 3129   4.290   1.559   2.559  0.0182  0.5191  0.1692
  973WAT     H1 3130   4.354   1.571   2.489 -0.6012  1.0258 -0.3206
  973WAT     H2 3131   4.206   1.576   2.518 -0.6457 -2.0267  0.3056
  974WAT      O 3132   4.115   4.586   4.758 -0.4803 -0.0978  0.0776
  974WAT     H1 3133   4.024   4.600   4.734 -0.8346 -1.2042  0.6983
  974WAT     H2 3134   4.125   4.491   4.762  0.4579  0.0099  0.9093
  975WAT      O 3135   0.912   3.438   2.516 -0.1757 -0.0328 -0.1608
  975WAT     H1 3136   0.851   3.482   2.575  0.7835 -0.1623  0.9717
  975WAT     H2 3137   0.961   3.509   2.475 -1.0196  0.0683 -1.0204
  976WAT      O 3138   3.279   3.666   4.020 -0.1392  0.0910  0.0020
  976WAT     H1 3139   3.360   3.697   4.060 -0.4481  0.3677  0.4200
  976WAT     H2 3140   3.291   3.680   3.926  0.4178 -0.1566  0.0340
  977WAT      O 3141   0.852   0.723   3.127 -0.2336 -0.4883  0.3511
  977WAT     H1 3142   0.820   0.711   3.217 -0.7875 -0.4596  0.1601
  977WAT     H2 3143   0.856   0.635   3.091  0.5641 -0.5583  0.5930
  978WAT      O 3144   0.228   3.468   4.266 -0.8652  0.6904 -0.4452
  978WAT     H1 3145   0.149   3.431   4.304  0.2290  0.8230  2.1205
  978WAT     H2 3146   0.265   3.396   4.214 -0.6398 -0.7339  1.5637
  979WAT      O 3147   1.990   5.391   2.152 -0.3065 -0.3377  0.1534
  979WAT     H1 3148   2.015   5.480   2.127  0.7540 -0.2360  1.5078
  979WAT     H2 3149   1.920   5.402   2.216  0.2789 -0.4378  0.8249
  980WAT      O 3150   1.008   4.356   3.360 -0.3664  0.0326 -0.0949
  980WAT     H1 3151   0.961   4.273   3.355  2.1668 -1.5746  0.5826
  980WAT     H2 3152   1.036   4.363   3.451  2.1970 -0.1013 -0.7779
  981WAT      O 3153   1.101   5.623   1.875  0.1650  0.5670 -0.0390
  981WAT     H1 3154   1.039   5.609   1.804  2.0137 -0.3973 -1.5909
  981WAT     H2 3155   1.047   5.630   1.954 -1.9030  0.4262 -1.3682
  982WAT      O 3156   2.517   1.419   3.420 -0.3056 -0.2975  0.3832
  982WAT     H1 3157   2.533   1.513   3.435 -2.7905  0.3768 -0.7918
  982WAT     H2 3158   2.603   1.385   3.395  0.8419  1.4770  1.6288
  983WAT      O 3159   3.581   4.127   4.653  0.1786  0.2802 -0.6012
  983WAT     H1 3160   3.580   4.195   4.587 -0.4041  0.3318 -0.5478
  983WAT     H2 3161   3.668   4.088   4.647  0.4629  0.9260 -0.7337
  984WAT      O 3162   1.296   3.301   0.404  0.0142  0.0473  0.5338
  984WAT     H1 3163   1.263   3.270   0.488 -0.3446  0.7335  0.6462
  984WAT     H2 3164   1.273   3.394   0.401 -0.2680 -0.0392 -0.4595
  985WAT      O 3165   2.889   1.227   4.767 -0.2278  0.4640 -0.1373
  985WAT     H1 3166   2.923   1.265   4.685 -0.3530  0.8098 -0.0320
  985WAT     H2 3167   2.817   1.171   4.739 -0.4517  0.7992 -0.2455
  986WAT      O 3168   2.174   2.600   3.182  0.0370  0.5642  0.0573
  986WAT     H1 3169   2.219   2.521   3.212  0.1376  0.5025 -0.2559
  986WAT     H2 3170   2.100   2.609   3.242 -0.7746 -0.5395 -0.7294
  987WAT      O 3171   1.684   0.906   1.219 -0.3187 -0.4401 -0.0277
  987WAT     H1 3172   1.683   0.981   1.161  0.2593 -0.6159 -0.2708
  987WAT     H2 3173   1.633   0.933   1.295 -0.4687  0.0430 -0.3018
  988WAT      O 3174   4.653   2.704   4.125  0.0929  0.2560  0.3604
  988WAT     H1 3175   4.575   2.697   4.071  0.6763 -0.0335 -0.4695
  988WAT     H2 3176   4.632   2.770   4.190 -0.0254  1.9406 -1.3119
  989WAT      O 3177   0.975   4.430   1.127 -0.3199 -0.2960 -0.3250
  989WAT     H1 3178   1.060   4.392   1.103  1.0923  2.0068  0.7049
  989WAT     H2 3179   0.919   4.413   1.052  1.5360 -0.4825 -1.7293
  990WAT      O 3180   2.916   4.391   3.963 -0.4453  0.2199 -0.0355
  990WAT     H1 3181   2.834   4.432   3.992  0.7098  1.3908  1.7968
  990WAT     H2 3182   2.914   4.305   4.005 -0.7329  0.2533  0.0269
  991WAT      O 3183   3.617   0.927   3.361  0.1807 -0.1740  0.3599
  991WAT     H1 3184   3.621   0.837   3.330 -0.4573 -0.4836  1.1507
  991WAT     H2 3185   3.611   0.920   3.457  0.8448  0.7236  0.4840
  992WAT      O 3186   1.859   0.785   5.646 -0.4150 -0.6533 -0.2701
  992WAT     H1 3187   1.813   0.753   5.724 -0.7713  0.0804 -0.1621
  992WAT     H2 3188   1.830   0.729   5.575 -0.9743 -0.6120 -0.0759
  993WAT      O 3189   2.426   4.648   2.921  0.1362 -0.4163 -0.1117
  993WAT     H1 3190   2.380   4.714   2.972 -1.5685 -1.6033 -0.0198
  993WAT     H2 3191   2.506   4.630   2.971  0.6154  1.5094 -0.1284
  994WAT      O 3192   4.412   3.355   4.615 -0.3203 -0.2227 -0.7528
  994WAT     H1 3193   4.457   3.275   4.642  1.0505  0.9524  0.6825
  994WAT     H2 3194   4.393   3.342   4.522 -0.5607 -2.3724 -0.4358
  995WAT      O 3195   4.198   5.479   3.914 -0.0944  0.9289  0.3105
  995WAT     H1 3196   4.241   5.563   3.929 -0.2128  1.4404 -1.8747
  995WAT     H2 3197   4.270   5.416   3.911  0.3989  1.5262 -1.6468
  996WAT      O 3198   4.370   3.478   5.153 -0.1384 -0.3346  0.2021
  996WAT     H1 3199   4.350   3.550   5.212 -0.9377  1.0927 -1.6953
  996WAT     H2 3200   4.284   3.439   5.132  0.1505 -0.9561  0.1425
  997WAT      O 3201   3.350   5.060   2.929  0.1387  0.2459 -0.1034
  997WAT     H1 3202   3.369   4.967   2.936 -2.7802 -0.6365 -1.9813
  997WAT     H2 3203   3.308   5.083   3.012 -1.3502 -0.7997 -0.5289
  998WAT      O 3204   0.955   5.591   4.326  0.0204  0.6729  0.3070
  998WAT     H1 3205   1.046   5.565   4.313  0.1847  1.6200 -0.6318
  998WAT     H2 3206   0.918   5.525   4.384  0.8896 -0.5868 -0.5337
  999WAT      O 3207   3.474   1.858   2.731 -0.2782 -0.3246 -0.2986
  999WAT     H1 3208   3.486   1.824   2.820 -0.0453  0.2500 -0.1089
  999WAT     H2 3209   3.427   1.941   2.743 -1.0765 -0.6920 -0.7808
 1000WAT      O 3210   3.799   3.755   5.281  0.5488 -0.4170  0.7765
 1000WAT     H1 3211   3.764   3.705   5.355  0.5786 -0.4882  0.7424
 1000WAT     H2 3212   3.850   3.692   5.231 -0.7584 -0.7635 -0.1684
 1001WAT      O 3213   0.121   3.675   3.881 -0.2454  0.0490  0.4159
 1001WAT     H1 3214   0.107   3.722   3.799  0.0634 -0.5984 -0.0190
 1001WAT     H2 3215   0.033   3.659   3.915 -0.3394  2.2833  1.3792
 1002WAT      O 3216   1.688   0.642   2.656 -0.3333  0.6200 -0.4151
 1002WAT     H1 3217   1.773   0.601   2.666 -0.9384 -0.7115 -0.4853
 1002WAT     H2 3218   1.625   0.570   2.666 -1.4896  1.7120  0.5450
 1003WAT      O 3219   1.743   4.619   1.720 -0.5788 -0.6666 -0.1173
 1003WAT     H1 3220   1.836   4.641   1.730 -0.7268 -0.8963  2.2445
 1003WAT     H2 3221   1.742   4.556   1.647  1.2739 -1.4539  0.4632
 1004WAT      O 3222   3.002   1.024   4.316 -0.1600  0.1635 -0.7322
 1004WAT     H1 3223   3.041   1.108   4.290 -0.5687  0.8803  0.8385
 1004WAT     H2 3224   2.919   1.048   4.356 -0.5664 -1.0652 -0.8057
 1005WAT      O 3225   4.954   5.524   4.094  0.7740 -0.2326 -0.2451
 1005WAT     H1 3226   5.012   5.587   4.053  1.2438  0.4290  1.3641
 1005WAT     H2 3227   4.898   5.493   4.023  3.9968 -2.0484 -2.2609
 1006WAT      O 3228   4.294   0.481   4.682  0.2186  0.1318 -0.2891
 1006WAT     H1 3229   4.235   0.548   4.648  0.4721 -0.2056 -1.4300
 1006WAT     H2 3230   4.365   0.476   4.618 -0.2579 -1.8486 -0.7466
 1007WAT      O 3231   4.958   5.150   3.173  0.2888 -0.1011 -0.1840
 1007WAT     H1 3232   4.953   5.129   3.079 -0.5139  1.6937 -0.5898
 1007WAT     H2 3233   4.917   5.075   3.216  3.9022 -2.7346 -0.9064
 1008WAT      O 3234   4.125   4.111   3.725 -0.0074 -0.4811  0.8299
 1008WAT     H1 3235   4.083   4.025   3.723 -0.7793 -0.1241  1.1829
 1008WAT     H2 3236   4.066   4.168   3.675  1.2042 -0.4502 -0.5999
 1009WAT      O 3237   4.438   3.878   4.169  0.3214  0.0289  0.3719
 1009WAT     H1 3238   4.515   3.934   4.159  0.7641 -0.8210 -1.3130
 1009WAT     H2 3239   4.431   3.831   4.086 -0.7108 -1.5694  1.3062
 1010WAT      O 3240   0.975   0.693   4.759 -0.4515  0.2329 -0.2761
 1010WAT     H1 3241   1.039   0.649   4.815  0.1883  0.7841 -0.5726
 1010WAT     H2 3242   0.998   0.786   4.765 -1.5327  0.4977  0.0151
 1011WAT      O 3243   4.181   1.150   4.396 -0.1807  0.3250 -0.2710
 1011WAT     H1 3244   4.273   1.139   4.419  0.7626 -0.1709 -3.6741
 1011WAT     H2 3245   4.179   1.137   4.301 -3.6913  0.9184 -0.3987
 1012WAT      O 3246   3.908   0.800   2.901 -0.5601 -0.5312  0.1320
 1012WAT     H1 3247   3.939   0.871   2.957 -0.3894  0.8067 -1.5533
 1012WAT     H2 3248   3.982   0.740   2.894 -0.7350 -0.9522  1.6574
 1013WAT      O 3249   4.018   1.979   2.221 -0.3280  0.0036  0.5278
 1013WAT     H1 3250   3.974   2.054   2.261 -0.3101  0.9417 -1.1464
 1013WAT     H2 3251   3.995   1.983   2.129 -1.3535 -2.8261  0.5673
 1014WAT      O 3252   1.309   0.903   2.228 -0.5734  0.4298  1.3133
 1014WAT     H1 3253   1.369   0.960   2.181  0.1400  0.4258  2.1938
 1014WAT     H2 3254   1.229   0.954   2.236 -0.6703  0.4750  0.2253
 1015WAT      O 3255   3.124   0.305   3.434  0.2293 -0.3330  0.2356
 1015WAT     H1 3256   3.145   0.381   3.380 -1.4604  0.4085  0.5512
 1015WAT     H2 3257   3.184   0.311   3.509 -0.2158  0.9911  0.5091
 1016WAT      O 3258   2.818   0.745   5.579  0.1992 -0.0835  0.3415
 1016WAT     H1 3259   2.908   0.742   5.546 -0.1395  0.9698 -0.7724
 1016WAT     H2 3260   2.828   0.750   5.674  1.2514 -1.8531  0.3747
 1017WAT      O 3261   3.453   2.161   2.712  0.3399  0.0293 -0.2260
 1017WAT     H1 3262   3.501   2.122   2.639 -0.5800  0.5600 -1.1192
 1017WAT     H2 3263   3.484   2.252   2.716  1.1182 -0.2511  0.6944
 1018WAT      O 3264   2.282   2.015   1.489  0.1236  0.6421 -0.0993
 1018WAT     H1 3265   2.217   1.971   1.435  0.8632 -0.1312 -0.3916
 1018WAT     H2 3266   2.354   2.033   1.428  0.3011  1.2141  0.2786
 1019WAT      O 3267   0.099   4.857   3.051  0.2493  0.3005 -0.1481
 1019WAT     H1 3268   0.134   4.935   3.007  3.4239 -1.4397 -1.0204
 1019WAT     H2 3269   0.174   4.797   3.056 -1.4006 -1.7495  2.7679
 1020WAT      O 3270   2.709   1.100   5.816  0.3685 -0.1643 -0.0427
 1020WAT     H1 3271   2.750   1.014   5.826 -0.1376 -0.3409  0.5031
 1020WAT     H2 3272   2.755   1.138   5.740  0.4710 -0.9783 -0.4101
 1021WAT      O 3273   2.400   0.417   2.842 -0.3468 -0.3186 -0.1020
 1021WAT     H1 3274   2.478   0.469   2.864 -0.9720 -0.1999  2.0402
 1021WAT     H2 3275   2.327   0.467   2.878 -1.4648 -0.4236 -2.0972
 1022WAT      O 3276   2.643   1.665   3.459 -0.0465  0.0251 -0.7302
 1022WAT     H1 3277   2.723   1.657   3.511 -0.5367 -1.6198 -0.1584
 1022WAT     H2 3278   2.670   1.715   3.382  1.2291  0.5669  0.0297
 1023WAT      O 3279   0.168   4.969   4.178 -0.0523  0.0452  0.0146
 1023WAT     H1 3280   0.140   5.018   4.256  2.3396  0.2198  0.8387
 1023WAT     H2 3281   0.161   4.877   4.204  2.0230  0.1030  1.0299
 1024WAT      O 3282   4.390   0.817   4.720  0.2160  0.3826  0.3226
 1024WAT     H1 3283   4.384   0.842   4.812 -0.8231  2.6459 -0.2906
 1024WAT     H2 3284   4.306   0.844   4.682  0.1258 -1.6317 -1.0718
 1025WAT      O 3285   3.185   0.127   2.504  0.1067 -0.0816  0.2180
 1025WAT     H1 3286   3.188   0.089   2.592  0.8955 -0.9064 -0.1561
 1025WAT     H2 3287   3.182   0.052   2.445 -1.4349  0.4548 -0.4654
 1026WAT      O 3288   4.724   3.294   3.209  0.0728  0.6916 -0.5159
 1026WAT     H1 3289   4.812   3.293   3.247  0.4855  0.4297 -1.4427
 1026WAT     H2 3290   4.735   3.338   3.125 -1.3995  4.1660  0.9302
 1027WAT      O 3291   3.303   0.340   3.638 -0.6922 -0.1643 -0.3333
 1027WAT     H1 3292   3.378   0.323   3.695 -0.5744  0.9285 -0.1466
 1027WAT     H2 3293   3.269   0.424   3.667 -1.6199 -0.3476 -0.8289
 1028WAT      O 3294   2.584   0.582   1.999  0.2764 -0.1086  0.3184
 1028WAT     H1 3295   2.632   0.534   2.066 -0.1056  1.0296  1.4543
 1028WAT     H2 3296   2.529   0.517   1.957  0.5856 -0.8676  1.0672
 1029WAT      O 3297   2.935   1.582   3.849 -0.6496  0.4193  0.3208
 1029WAT     H1 3298   2.973   1.494   3.842 -0.1962  0.7646 -2.5035
 1029WAT     H2 3299   3.006   1.634   3.888 -0.8551 -0.3736  1.8418
 1030WAT      O 3300   0.918   2.901   4.399 -0.0668  0.0283  0.0177
 1030WAT     H1 3301   1.013   2.901   4.398  0.0368  3.3027 -0.0672
 1030WAT     H2 3302   0.892   2.939   4.316 -1.6518 -2.7995 -0.9495
 1031WAT      O 3303   2.298   5.619   5.397 -0.4375 -0.1902  0.4553
 1031WAT     H1 3304   2.352   5.541   5.413  0.1338  0.3426  1.1997
 1031WAT     H2 3305   2.348   5.669   5.332 -0.1746  0.1626  0.9256
 1032WAT      O 3306   0.756   2.942   3.546  0.3148 -0.6715 -0.2454
 1032WAT     H1 3307   0.714   2.885   3.610 -1.5285  0.1525 -0.6693
 1032WAT     H2 3308   0.749   2.894   3.463 -1.5001  0.2424 -0.6569
 1033WAT      O 3309   4.878   0.470   4.340 -0.5416  0.0138 -0.0774
 1033WAT     H1 3310   4.902   0.380   4.363  1.3492  0.3910 -0.4038
 1033WAT     H2 3311   4.875   0.517   4.424  1.1211  0.2137 -0.1040
 1034WAT      O 3312   3.778   1.359   5.375 -0.9921 -0.4339 -0.1206
 1034WAT     H1 3313   3.824   1.377   5.457 -1.6645 -0.4975  0.2790
 1034WAT     H2 3314   3.685   1.362   5.398 -1.2031  0.0125 -0.9770
 1035WAT      O 3315   0.548   0.748   3.226  0.6552  0.6023  0.6560
 1035WAT     H1 3316   0.610   0.686   3.264  0.3424  1.0530  1.9344
 1035WAT     H2 3317   0.464   0.726   3.265  0.3895  1.3136  0.5067
 1036WAT      O 3318   1.635   2.639   1.656 -0.0246 -0.4734  0.3059
 1036WAT     H1 3319   1.605   2.721   1.618 -1.9473 -2.1150 -2.0543
 1036WAT     H2 3320   1.584   2.630   1.737 -0.0236  0.4958  0.4253
 1037WAT      O 3321   4.009   0.900   4.443 -0.4231 -0.1434  0.1795
 1037WAT     H1 3322   4.074   0.932   4.381 -0.7265 -0.3168 -0.2331
 1037WAT     H2 3323   3.927   0.943   4.417 -0.8718 -1.3217 -0.4656
 1038WAT      O 3324   3.541   4.624   3.325 -0.0808  0.4661 -0.2803
 1038WAT     H1 3325   3.558   4.681   3.400 -0.1315 -0.2728  0.3103
 1038WAT     H2 3326   3.468   4.569   3.352 -0.0565  0.1429 -0.8443
 1039WAT      O 3327   4.127   4.997   4.246 -0.2630  0.3310 -0.3242
 1039WAT     H1 3328   4.145   4.909   4.213 -0.6305 -0.2768  1.0182
 1039WAT     H2 3329   4.185   5.006   4.322 -1.4630  0.5491  0.6015
 1040WAT      O 3330   3.198   5.627   1.810 -0.0604  0.0062  0.1523
 1040WAT     H1 3331   3.161   5.546   1.773 -2.7599  1.0021  0.4713
 1040WAT     H2 3332   3.213   5.683   1.734 -0.4447  0.0617  0.1145
 1041WAT      O 3333   1.345   5.523   3.065  0.3000 -0.1511 -0.1799
 1041WAT     H1 3334   1.372   5.577   2.991  0.0131  0.4936  0.1827
 1041WAT     H2 3335   1.275   5.468   3.030  0.5493 -0.2489 -0.5324
 1042WAT      O 3336   2.435   0.162   3.129 -0.0025  0.0232 -0.0107
 1042WAT     H1 3337   2.435   0.249   3.168  0.6395  0.1982 -0.3869
 1042WAT     H2 3338   2.414   0.176   3.037 -0.6103 -0.2971  0.0717
 1043WAT      O 3339   3.741   3.939   3.294  0.3268  0.0232  0.5648
 1043WAT     H1 3340   3.727   4.022   3.248 -0.0607  0.5602  1.6028
 1043WAT     H2 3341   3.788   3.964   3.374 -1.2298 -0.5118  1.6980
 1044WAT      O 3342   3.990   0.444   1.541 -0.0186  0.7818  0.1320
 1044WAT     H1 3343   4.018   0.533   1.519 -0.3408  1.1826  1.2696
 1044WAT     H2 3344   3.896   0.445   1.528 -0.0644  0.7015  0.4593
 1045WAT      O 3345   0.369   0.986   3.367  0.4320  0.2250 -0.1247
 1045WAT     H1 3346   0.458   0.999   3.333  0.0125 -0.2683 -1.4636
 1045WAT     H2 3347   0.343   1.073   3.398  0.9448  0.6414 -0.8093
 1046WAT      O 3348   1.947   1.717   2.985  0.2006 -0.3572 -0.0035
 1046WAT     H1 3349   1.951   1.712   2.889 -3.9469  0.1061 -0.3650
 1046WAT     H2 3350   1.923   1.628   3.012  1.6630 -0.5631  0.7095
 1047WAT      O 3351   3.461   1.006   0.059  0.0787 -0.0143  0.3202
 1047WAT     H1 3352   3.409   1.086   0.047  0.9279  0.4699 -0.2036
 1047WAT     H2 3353   3.544   1.037   0.096  0.1430 -0.7424  0.8032
 1048WAT      O 3354   1.851   2.970   1.251 -0.3881  0.3407 -0.1415
 1048WAT     H1 3355   1.758   2.949   1.243  0.0259 -1.6159 -0.3160
 1048WAT     H2 3356   1.897   2.892   1.218  1.3237  1.3212 -0.2366
 1049WAT      O 3357   4.016   1.057   1.816  0.8501 -0.4741 -0.2712
 1049WAT     H1 3358   4.085   0.997   1.787  1.5085 -0.7675  1.7314
 1049WAT     H2 3359   4.013   1.045   1.911  0.2061  1.8401  0.0608
 1050WAT      O 3360   3.145   4.694   2.014  0.1048 -0.1377 -0.0793
 1050WAT     H1 3361   3.148   4.787   2.038 -1.5192 -0.6508  2.5405
 1050WAT     H2 3362   3.229   4.659   2.044  0.4442  0.3292 -0.4614
 1051WAT      O 3363   2.426   0.777   4.317 -0.1023 -0.1634  0.3032
 1051WAT     H1 3364   2.521   0.772   4.306  0.0775 -0.5691  1.8562
 1051WAT     H2 3365   2.401   0.690   4.348 -0.9631 -0.0148  0.0443
 1052WAT      O 3366   0.978   5.027   1.078  0.1608  0.4830 -0.2270
 1052WAT     H1 3367   1.004   5.118   1.063 -1.1364  0.5285 -2.7092
 1052WAT     H2 3368   0.971   4.989   0.991  2.4332 -2.6025  0.7709
 1053WAT      O 3369   3.426   0.181   0.350 -0.6820  0.1779  0.0367
 1053WAT     H1 3370   3.445   0.173   0.257 -0.0774 -0.4076  0.1993
 1053WAT     H2 3371   3.425   0.275   0.367 -1.8577  0.3280 -0.7652
 1054WAT      O 3372   0.703   3.567   2.166 -0.0500 -0.1335 -0.2662
 1054WAT     H1 3373   0.659   3.637   2.116 -1.0630 -0.5321  0.0523
 1054WAT     H2 3374   0.657   3.487   2.140  1.4017 -0.7561 -0.9706
 1055WAT      O 3375   3.120   1.744   2.080  0.2975  0.4377 -0.1484
 1055WAT     H1 3376   3.071   1.763   2.160  0.0087  2.5867 -0.7595
 1055WAT     H2 3377   3.099   1.817   2.022  0.8458 -0.8496 -2.0379
 1056WAT      O 3378   1.225   0.578   2.145  0.2860  0.1389 -0.0570
 1056WAT     H1 3379   1.254   0.488   2.160  1.6362  0.6673  0.6883
 1056WAT     H2 3380   1.226   0.618   2.232  0.4063  1.0685 -0.4731
 1057WAT      O 3381   2.691   2.340   4.130  0.0247  0.4866  0.2611
 1057WAT     H1 3382   2.627   2.395   4.085 -0.1963  0.0475  0.0218
 1057WAT     H2 3383   2.775   2.382   4.115 -0.1388  0.7395  0.0539
 1058WAT      O 3384   1.102   1.496   3.600 -0.2796 -0.2323  0.2642
 1058WAT     H1 3385   1.071   1.512   3.689  0.4485  2.3722  0.1587
 1058WAT     H2 3386   1.070   1.572   3.550  0.2425 -1.0857 -1.4338
 1059WAT      O 3387   0.814   1.998   3.383 -0.0859 -0.7035 -0.4501
 1059WAT     H1 3388   0.804   2.093   3.376 -2.1930 -0.8591 -0.2260
 1059WAT     H2 3389   0.877   1.975   3.314 -0.0937  0.7729 -0.9742
 1060WAT      O 3390   3.460   0.482   2.480  0.0729  0.0640  0.4739
 1060WAT     H1 3391   3.539   0.514   2.437  0.5905 -2.2180 -0.3891
 1060WAT     H2 3392   3.431   0.409   2.425 -1.1558 -0.8071  2.2126
 1061WAT      O 3393   4.242   0.524   3.248 -0.1400  0.0091  0.0685
 1061WAT     H1 3394   4.289   0.493   3.326 -0.6858 -0.7658  0.0956
 1061WAT     H2 3395   4.311   0.538   3.183  0.2441 -0.0380  0.4567
 1062WAT      O 3396   3.482   5.243   4.122 -0.4629 -0.5376 -0.0739
 1062WAT     H1 3397   3.540   5.177   4.161  2.3284  1.6354 -0.2425
 1062WAT     H2 3398   3.409   5.251   4.184  0.1506 -2.3032  0.9521
 1063WAT      O 3399   1.849   0.439   2.158  0.6066  0.0763  0.4042
 1063WAT     H1 3400   1.821   0.504   2.094 -0.5648 -0.5808  0.2283
 1063WAT     H2 3401   1.853   0.488   2.241 -0.3860  0.3574  0.3005
 1064WAT      O 3402   3.586   0.758   4.344  0.2765 -0.1296  0.0324
 1064WAT     H1 3403   3.633   0.808   4.278  2.3187 -1.0338  0.7162
 1064WAT     H2 3404   3.568   0.822   4.413  2.2863 -0.1254  0.6148
 1065WAT      O 3405   0.208   5.156   3.379 -0.3644  0.0437 -0.0140
 1065WAT     H1 3406   0.144   5.159   3.308 -0.0030  0.1913 -0.3361
 1065WAT     H2 3407   0.161   5.114   3.452 -0.4332 -1.0497 -0.6567
 1066WAT      O 3408   2.337   5.569   3.188 -0.1784  0.4993 -0.0990
 1066WAT     H1 3409   2.345   5.639   3.124 -0.0743 -0.1316 -0.7909
 1066WAT     H2 3410   2.276   5.507   3.149  0.8082 -0.4837 -0.1450
 1067WAT      O 3411   0.948   1.065   4.586 -0.4110  0.4251  0.5399
 1067WAT     H1 3412   0.915   0.977   4.570  0.5566  0.1217  0.1449
 1067WAT     H2 3413   1.012   1.054   4.656  2.1915  0.2125 -1.6987
 1068WAT      O 3414   0.731   1.667   2.618  0.1306  0.3177  0.2854
 1068WAT     H1 3415   0.657   1.648   2.675  0.7365  1.0071  1.3376
 1068WAT     H2 3416   0.762   1.581   2.589  0.7680 -0.1747  2.2721
 1069WAT      O 3417   2.265   0.805   3.548 -0.2002  0.2712 -0.6338
 1069WAT     H1 3418   2.284   0.728   3.602 -0.0165  1.5616  1.2042
 1069WAT     H2 3419   2.344   0.859   3.554  0.0341  0.2501 -2.6417
 1070WAT      O 3420   3.462   1.904   3.451  0.4358  0.3664  0.4749
 1070WAT     H1 3421   3.432   1.821   3.487  0.9571  0.6118  1.5256
 1070WAT     H2 3422   3.513   1.880   3.374 -0.1962 -0.2171  0.2273
 1071WAT      O 3423   3.013   4.146   5.059  0.4620  0.1157 -0.2694
 1071WAT     H1 3424   2.948   4.076   5.049  1.0682 -0.4182 -0.5212
 1071WAT     H2 3425   2.973   4.206   5.123 -0.1160 -0.3945 -0.1376
 1072WAT      O 3426   0.242   1.019   4.676 -0.0260 -0.1380  0.0629
 1072WAT     H1 3427   0.224   1.096   4.622  1.0970 -1.2756 -2.0830
 1072WAT     H2 3428   0.335   1.027   4.700  0.3861 -1.2771 -1.0474
 1073WAT      O 3429   3.738   0.613   2.767 -0.8267  0.8858  0.0949
 1073WAT     H1 3430   3.761   0.685   2.825 -1.5209  0.9831  0.2564
 1073WAT     H2 3431   3.758   0.534   2.817  1.1091  0.9272 -0.5342
 1074WAT      O 3432   3.545   1.756   3.854  0.3117 -0.7716 -0.1140
 1074WAT     H1 3433   3.591   1.673   3.868  0.1578 -0.7365  0.6114
 1074WAT     H2 3434   3.537   1.794   3.941  0.3055 -0.0323 -0.4324
 1075WAT      O 3435   3.612   5.092   3.097  0.3018 -0.0876 -0.1662
 1075WAT     H1 3436   3.536   5.074   3.152 -0.4028  0.5237 -0.9062
 1075WAT     H2 3437   3.580   5.080   3.007  1.1784 -0.1748 -0.4789
 1076WAT      O 3438   2.238   1.945   2.944 -0.8335  0.0486  0.1740
 1076WAT     H1 3439   2.287   1.916   2.867 -0.7765  0.8739 -0.1124
 1076WAT     H2 3440   2.276   2.031   2.965 -3.5365  1.7737 -1.3852
 1077WAT      O 3441   0.808   4.454   4.721 -0.2341 -0.2729  0.4284
 1077WAT     H1 3442   0.860   4.425   4.795  0.3325 -0.3912 -0.0081
 1077WAT     H2 3443   0.781   4.543   4.745  1.2194  0.2820  0.1464
 1078WAT      O 3444   3.526   0.685   3.301  0.1203  0.0555 -0.5189
 1078WAT     H1 3445   3.544   0.663   3.392  0.3870  1.4074 -0.2194
 1078WAT     H2 3446   3.540   0.604   3.253  2.1626 -0.1586  0.3568
 1079WAT      O 3447   4.637   4.219   3.874  0.5496 -0.5333  0.1943
 1079WAT     H1 3448   4.582   4.273   3.930  0.3907 -0.0026 -0.4629
 1079WAT     H2 3449   4.721   4.264   3.872 -0.4153  1.4687 -2.7858
 1080WAT      O 3450   4.911   3.568   3.321  0.9670  0.5188  0.4205
 1080WAT     H1 3451   4.971   3.538   3.389 -1.2486 -0.1896  2.2096
 1080WAT     H2 3452   4.931   3.661   3.309  2.2122  0.3528  1.1302
 1081WAT      O 3453   1.261   0.073   3.546 -0.2451  0.6084  0.2343
 1081WAT     H1 3454   1.264   0.012   3.472  1.9550 -0.1413  0.8837
 1081WAT     H2 3455   1.254   0.017   3.623  0.2427  1.2527  0.7537
 1082WAT      O 3456   2.451   4.704   1.696 -0.0369 -0.6522  0.0585
 1082WAT     H1 3457   2.478   4.782   1.746 -1.0954  0.1027 -0.4977
 1082WAT     H2 3458   2.532   4.669   1.661  0.4854  0.0986  0.4782
 1083WAT      O 3459   3.213   4.334   1.422 -0.4348  0.0526  0.3976
 1083WAT     H1 3460   3.158   4.272   1.374 -1.2905 -0.3822  1.8885
 1083WAT     H2 3461   3.260   4.382   1.354 -0.9545 -1.1367 -0.8400
 1084WAT      O 3462   4.632   2.948   3.775  0.0499  0.2737  0.0541
 1084WAT     H1 3463   4.719   2.910   3.788  0.0096  0.2791  0.3677
 1084WAT     H2 3464   4.572   2.880   3.803 -0.0385  0.3702  0.1019
 1085WAT      O 3465   0.347   5.563   1.776 -0.1267  0.1912 -0.7451
 1085WAT     H1 3466   0.340   5.641   1.831 -0.3019  0.0536 -0.5688
 1085WAT     H2 3467   0.382   5.595   1.693  1.2594  0.2266 -0.1762
 1086WAT      O 3468   2.773   1.333   2.673  0.1255 -0.1162 -0.0352
 1086WAT     H1 3469   2.721   1.252   2.666  0.3997 -0.2602 -0.4205
 1086WAT     H2 3470   2.816   1.341   2.588 -0.3557  0.7493 -0.2042
 1087WAT      O 3471   3.066   5.044   2.402 -0.4906  0.4450  0.0120
 1087WAT     H1 3472   3.032   5.010   2.485  1.4551  0.9952  1.1187
 1087WAT     H2 3473   2.988   5.069   2.352 -1.7820 -1.5062  0.9391
 1088WAT      O 3474   3.538   5.669   3.580 -0.1795  0.9440 -0.3695
 1088WAT     H1 3475   3.453   5.641   3.546  0.1122  1.2644 -1.4240
 1088WAT     H2 3476   3.581   5.588   3.607 -1.1440  0.8589  1.0124
 1089WAT      O 3477   1.359   5.337   4.855  0.7526 -0.8946  0.1235
 1089WAT     H1 3478   1.424   5.309   4.790  0.1403 -3.4559  0.5382
 1089WAT     H2 3479   1.277   5.342   4.806  0.4722 -1.8674  0.4900
 1090WAT      O 3480   1.305   1.009   3.146 -0.2533 -0.8432 -0.2311
 1090WAT     H1 3481   1.243   0.936   3.142 -2.7452  1.0643  0.9252
 1090WAT     H2 3482   1.264   1.078   3.094  0.8823  0.5118  0.6000
 1091WAT      O 3483   0.331   0.167   2.063  0.4168  0.1083 -0.5695
 1091WAT     H1 3484   0.426   0.160   2.048  0.7393  1.4120  0.6700
 1091WAT     H2 3485   0.309   0.088   2.112  1.0182  0.1802 -0.1771
 1092WAT      O 3486   2.354   3.297   5.234 -0.3172  0.1886  0.4385
 1092WAT     H1 3487   2.406   3.293   5.154 -1.2973  0.4333 -0.2356
 1092WAT     H2 3488   2.279   3.240   5.216 -1.3474  1.4688  0.5712
 1093WAT      O 3489   0.842   1.531   4.564 -0.2166 -0.3521 -0.2630
 1093WAT     H1 3490   0.791   1.579   4.498 -1.0320 -1.4019 -0.4203
 1093WAT     H2 3491   0.809   1.441   4.559 -3.2026  0.1666  4.3122
 1094WAT      O 3492   4.086   5.459   1.417 -0.2533  0.1502  0.3230
 1094WAT     H1 3493   4.112   5.368   1.403  1.2062  0.4593  0.8605
 1094WAT     H2 3494   3.996   5.463   1.384 -1.3092 -2.0992  2.6079
 1095WAT      O 3495   4.233   0.200   3.971 -0.2040 -0.3792  0.5826
 1095WAT     H1 3496   4.151   0.244   3.951  0.1295  0.7211  1.4802
 1095WAT     H2 3497   4.214   0.148   4.049 -0.1901 -0.5355  0.4808
 1096WAT      O 3498   3.989   2.826   3.093  0.3295  0.2674  0.0826
 1096WAT     H1 3499   3.948   2.790   3.172  1.2072  1.1491  0.9621
 1096WAT     H2 3500   4.027   2.750   3.049 -0.0782 -0.2176  0.5525
 1097WAT      O 3501   1.282   2.809   0.328  0.0623  0.8587  0.0184
 1097WAT     H1 3502   1.293   2.896   0.365  2.2591 -0.4215  2.7483
 1097WAT     H2 3503   1.358   2.759   0.360 -1.1079 -2.0800 -1.3784
 1098WAT      O 3504   4.574   1.440   3.510  0.8745 -0.5357 -0.2895
 1098WAT     H1 3505   4.565   1.523   3.463  0.2271  0.4788  1.5605
 1098WAT     H2 3506   4.553   1.373   3.444  1.5429  0.7198 -1.8434
 1099WAT      O 3507   3.694   1.428   2.751 -0.0709 -0.1107 -0.2150
 1099WAT     H1 3508   3.671   1.515   2.782  0.1218  0.0568 -0.5317
 1099WAT     H2 3509   3.780   1.411   2.788 -0.6429 -0.6911  0.8786
 1100WAT      O 3510   3.376   4.281   3.278  0.2466  0.0599  0.1270
 1100WAT     H1 3511   3.353   4.360   3.326 -2.2038 -2.0978  2.9066
 1100WAT     H2 3512   3.468   4.266   3.300  0.2516  1.2209  0.9759
 1101WAT      O 3513   3.852   5.004   2.499 -0.1018 -0.5465 -0.1690
 1101WAT     H1 3514   3.903   5.060   2.557  0.9526  0.2738 -1.7893
 1101WAT     H2 3515   3.843   5.055   2.418  0.3384 -2.4149 -1.4823
 1102WAT      O 3516   4.672   5.056   1.868 -0.2124 -0.7563  0.4206
 1102WAT     H1 3517   4.692   4.966   1.843  0.0077 -0.4827 -0.4560
 1102WAT     H2 3518   4.758   5.098   1.877 -0.3081 -0.1168 -1.2523
 1103WAT      O 3519   0.526   5.111   4.743  0.7380  0.2858  0.1777
 1103WAT     H1 3520   0.481   5.085   4.823  0.6256 -0.9099 -0.2418
 1103WAT     H2 3521   0.503   5.042   4.680 -0.8304  2.1987 -1.5062
 1104WAT      O 3522   0.330   0.101   3.009  0.2701  0.3510 -0.2078
 1104WAT     H1 3523   0.238   0.123   3.024  0.1335 -0.5889  0.3819
 1104WAT     H2 3524   0.352   0.041   3.080  1.1085 -0.0764 -0.8194
 1105WAT      O 3525   3.872   2.028   4.035 -0.2180  0.1486  0.9020
 1105WAT     H1 3526   3.794   2.004   4.085 -0.3197  0.8834  1.1030
 1105WAT     H2 3527   3.840   2.084   3.965  0.1702  0.7772  1.2186
 1106WAT      O 3528   4.023   2.111   1.866  0.2147  0.4640  0.1060
 1106WAT     H1 3529   4.023   2.016   1.876  1.5495  0.4320 -0.0542
 1106WAT     H2 3530   4.112   2.138   1.887  0.1927  1.5475 -1.0640
 1107WAT      O 3531   2.765   2.090   4.641  0.3443 -0.3544 -0.2530
 1107WAT     H1 3532   2.841   2.117   4.590  1.1076  0.0128  1.0391
 1107WAT     H2 3533   2.792   2.009   4.684  0.4228  0.3623  1.0910
 1108WAT      O 3534   3.134   1.834   3.411  0.0907 -0.0026 -0.2769
 1108WAT     H1 3535   3.217   1.800   3.378  1.5798  2.4722  0.6385
 1108WAT     H2 3536   3.085   1.857   3.332  0.3685 -1.2331 -0.8290
 1109WAT      O 3537   2.080   1.150   0.407  0.6198  0.2944 -0.0507
 1109WAT     H1 3538   2.154   1.115   0.358  0.5227 -0.0758  0.0585
 1109WAT     H2 3539   2.021   1.184   0.340  2.0906  3.1242 -0.0464
 1110WAT      O 3540   1.186   1.483   4.077 -0.0707 -0.0190  0.0622
 1110WAT     H1 3541   1.159   1.571   4.051 -0.2769  0.0104  0.3731
 1110WAT     H2 3542   1.185   1.433   3.995  0.6953  0.4266 -0.2228
 1111WAT      O 3543   2.172   1.733   0.753  0.3422 -0.6916 -0.3230
 1111WAT     H1 3544   2.119   1.792   0.699 -0.1164 -0.1586  0.6784
 1111WAT     H2 3545   2.180   1.653   0.701 -0.1068 -0.2062 -1.1620
 1112WAT      O 3546   3.242   4.319   5.261 -0.1318  0.3091  0.0742
 1112WAT     H1 3547   3.187   4.337   5.337  0.7366 -0.5580  0.9485
 1112WAT     H2 3548   3.247   4.223   5.257  3.1003  0.2843  1.4629
 1113WAT      O 3549   2.665   0.089   0.592  0.3125 -0.0431 -0.1616
 1113WAT     H1 3550   2.639   0.124   0.677 -0.1993 -0.2377 -0.2369
 1113WAT     H2 3551   2.583   0.065   0.550  0.4648  1.1201 -1.1790
 1114WAT      O 3552   1.768   2.871   1.954  0.1894 -0.6228 -0.2142
 1114WAT     H1 3553   1.691   2.850   1.901  0.1339 -0.0274 -0.3714
 1114WAT     H2 3554   1.842   2.862   1.893 -0.0332  2.0137 -0.9656
 1115WAT      O 3555   2.860   1.776   1.733  0.6963  0.3312  0.0648
 1115WAT     H1 3556   2.893   1.865   1.719 -1.1003  1.0177 -0.0553
 1115WAT     H2 3557   2.770   1.778   1.699  1.1996 -2.0635 -1.7013
 1116WAT      O 3558   2.785   5.507   1.879 -0.5591 -0.4161  0.2074
 1116WAT     H1 3559   2.814   5.547   1.797  0.2949 -1.6080 -0.1078
 1116WAT     H2 3560   2.713   5.562   1.910 -0.6444  0.2571 -1.1525
 1117WAT      O 3561   3.639   4.937   2.204 -0.3911 -0.0661  0.1939
 1117WAT     H1 3562   3.602   4.881   2.272 -0.3600  0.3467  0.5559
 1117WAT     H2 3563   3.684   5.006   2.252 -1.2592  0.8204 -0.2294
 1118WAT      O 3564   3.468   2.412   2.398  0.5279 -0.0449 -0.3164
 1118WAT     H1 3565   3.530   2.425   2.469  0.9899  0.1521 -0.7529
 1118WAT     H2 3566   3.459   2.498   2.358 -0.7533  0.1460  0.3209
 1119WAT      O 3567   4.570   1.796   4.647  0.0892  0.1905  0.0020
 1119WAT     H1 3568   4.588   1.703   4.634 -0.2320 -0.0687  1.2254
 1119WAT     H2 3569   4.647   1.841   4.612  0.7660 -0.6040  0.4391
 1120WAT      O 3570   1.641   1.412   5.788 -0.6527  0.1522 -1.0506
 1120WAT     H1 3571   1.592   1.356   5.728 -0.4425  1.1417 -2.1817
 1120WAT     H2 3572   1.731   1.380   5.782  0.0852  2.3203 -3.9652
 1121WAT      O 3573   2.059   0.839   0.859  0.4210  0.0814 -0.0244
 1121WAT     H1 3574   1.977   0.822   0.814  0.1169  1.4060 -0.0061
 1121WAT     H2 3575   2.037   0.830   0.952  0.9761 -2.3360 -0.0548
 1122WAT      O 3576   3.109   0.912   1.351 -0.4889  0.2297  0.8977
 1122WAT     H1 3577   3.014   0.918   1.344 -0.3991  0.7130 -0.1641
 1122WAT     H2 3578   3.139   1.003   1.352  0.0762  0.1064 -1.0152
 1123WAT      O 3579   2.163   2.385   1.842  0.1961 -0.4550  0.0039
 1123WAT     H1 3580   2.210   2.321   1.789  0.4565 -0.7381  0.5728
 1123WAT     H2 3581   2.179   2.359   1.933 -0.1122  0.1176  0.2335
 1124WAT      O 3582   3.474   2.325   1.231 -0.2140 -0.4240 -0.1185
 1124WAT     H1 3583   3.465   2.366   1.317 -1.6438  0.9803 -0.8874
 1124WAT     H2 3584   3.509   2.395   1.175 -1.5310 -0.5741 -1.1918
 1125WAT      O 3585   0.081   0.505   4.139 -0.4709 -0.0384 -0.9783
 1125WAT     H1 3586   0.002   0.490   4.191 -0.8181 -1.6863 -1.9200
 1125WAT     H2 3587   0.152   0.503   4.203 -0.9119 -1.7836 -0.4832
 1126WAT      O 3588   0.967   1.266   3.741  0.3405 -0.5307 -0.0098
 1126WAT     H1 3589   0.935   1.209   3.671 -0.2408 -1.4118  0.9297
 1126WAT     H2 3590   0.995   1.346   3.697  2.1224 -1.8949 -1.5159
 1127WAT      O 3591   1.451   2.533   4.275 -0.3481  0.2283  0.3412
 1127WAT     H1 3592   1.468   2.499   4.363 -2.6521 -1.1247  0.3532
 1127WAT     H2 3593   1.485   2.622   4.277  2.9266 -0.9064  1.3917
 1128WAT      O 3594   2.617   1.757   2.011 -0.0231  0.2301  0.2591
 1128WAT     H1 3595   2.533   1.772   2.052  0.1360 -0.1952  0.7505
 1128WAT     H2 3596   2.661   1.842   2.012 -0.6534  0.5753 -0.4870
 1129WAT      O 3597   3.042   5.511   1.548  0.2023 -0.5220  0.1460
 1129WAT     H1 3598   3.069   5.561   1.472 -0.5381 -0.1766  0.0978
 1129WAT     H2 3599   2.995   5.574   1.603  0.6976 -0.7727  0.8740
 1130WAT      O 3600   0.051   0.658   3.929 -0.4289 -0.9726 -0.2988
 1130WAT     H1 3601   0.053   0.602   4.007 -1.1469 -0.3343  0.1859
 1130WAT     H2 3602  -0.013   0.616   3.872 -0.5466 -0.9563 -0.1790
 1131WAT      O 3603   3.674   0.536   4.047 -0.5038  0.3438 -0.2598
 1131WAT     H1 3604   3.728   0.474   4.096  0.3413 -0.4272 -2.0619
 1131WAT     H2 3605   3.603   0.482   4.012 -1.0159  0.8488 -0.0129
 1132WAT      O 3606   2.229   3.643   1.846  0.0246 -0.0369  0.0771
 1132WAT     H1 3607   2.165   3.691   1.897 -0.2790 -0.8836  0.5164
 1132WAT     H2 3608   2.177   3.581   1.794  0.4832 -0.9168  0.6381
 1133WAT      O 3609   3.741   4.768   4.999  0.4543 -0.3057  0.0277
 1133WAT     H1 3610   3.832   4.797   4.994  0.3795 -0.0331  0.1875
 1133WAT     H2 3611   3.735   4.724   5.084  0.2577  0.3240  0.3452
 1134WAT      O 3612   2.270   1.440   3.274  0.3499 -0.3984  0.6016
 1134WAT     H1 3613   2.293   1.521   3.228  0.1753 -0.2221  0.8249
 1134WAT     H2 3614   2.336   1.433   3.343  0.2378 -0.3366  0.7143
 1135WAT      O 3615   3.805   0.176   2.693 -0.4509 -0.5194 -0.1843
 1135WAT     H1 3616   3.764   0.201   2.610 -0.5024 -1.0319 -0.3166
 1135WAT     H2 3617   3.827   0.084   2.681  1.2340 -0.1407 -0.3352
 1136WAT      O 3618   3.141   2.596   0.347  0.1609  0.0139 -0.3985
 1136WAT     H1 3619   3.059   2.576   0.393  0.2884  0.2263 -0.0743
 1136WAT     H2 3620   3.163   2.515   0.301 -0.5971  0.1616 -1.0614
 1137WAT      O 3621   1.109   2.674   1.231 -0.6184  0.6268 -0.2311
 1137WAT     H1 3622   1.100   2.642   1.321  2.4715 -0.5026 -0.2261
 1137WAT     H2 3623   1.175   2.743   1.236  0.7939 -0.5263 -1.7830
 1138WAT      O 3624   4.390   0.952   3.106  0.1821 -0.3895 -0.3636
 1138WAT     H1 3625   4.443   0.890   3.057  0.2632 -1.2740  0.8188
 1138WAT     H2 3626   4.354   1.010   3.039 -0.3566 -2.0425 -1.5689
 1139WAT      O 3627   1.380   0.210   5.045  0.2190  0.2006 -0.1769
 1139WAT     H1 3628   1.371   0.126   5.091 -0.1467  1.2168  1.6609
 1139WAT     H2 3629   1.302   0.259   5.070  1.2036  1.6985  0.0605
 1140WAT      O 3630   0.488   2.999   3.739 -0.2561  0.6505  0.6007
 1140WAT     H1 3631   0.543   3.068   3.702  1.1576 -1.3930 -1.3449
 1140WAT     H2 3632   0.435   2.969   3.665 -2.0698  0.7154  1.8068
 1141WAT      O 3633   3.529   4.275   1.493 -0.3537 -0.3171 -0.0727
 1141WAT     H1 3634   3.608   4.227   1.517 -0.8291 -0.6799  0.8276
 1141WAT     H2 3635   3.546   4.365   1.522 -0.6201 -0.5929  1.0276
 1142WAT      O 3636   1.960   1.973   4.217 -0.0066 -0.4855 -0.0015
 1142WAT     H1 3637   2.014   1.896   4.232  1.7393  0.7376  0.2914
 1142WAT     H2 3638   1.908   1.982   4.297 -1.2963 -2.1302 -0.6061
 1143WAT      O 3639   3.169   1.696   1.397  0.5897 -0.3813 -0.0805
 1143WAT     H1 3640   3.184   1.619   1.343 -0.3705 -0.5785 -0.0766
 1143WAT     H2 3641   3.128   1.662   1.476 -0.6777  0.2187 -0.4611
 1144WAT      O 3642   3.878   4.724   2.062  0.9048 -0.0563 -0.4575
 1144WAT     H1 3643   3.811   4.724   1.994 -0.7082 -0.3424  1.0594
 1144WAT     H2 3644   3.881   4.814   2.093 -0.0325 -0.3563  0.5980
 1145WAT      O 3645   0.210   2.030   2.407  0.2545 -0.0244  0.2646
 1145WAT     H1 3646   0.252   2.114   2.424 -2.2723  1.0689  1.6044
 1145WAT     H2 3647   0.244   1.972   2.476  1.7695 -0.0837 -0.4805
 1146WAT      O 3648   3.202   0.739   0.831  0.1405  0.1914 -0.5104
 1146WAT     H1 3649   3.232   0.657   0.869  2.2752  1.1211 -0.0743
 1146WAT     H2 3650   3.151   0.780   0.901 -0.8767 -0.6864 -0.7066
 1147WAT      O 3651   2.508   4.042   0.395  0.5263  0.8333 -0.0777
 1147WAT     H1 3652   2.523   4.120   0.447  0.9553  0.2599  0.6680
 1147WAT     H2 3653   2.586   3.988   0.408  0.1954  0.2321 -0.4946
 1148WAT      O 3654   3.780   2.163   2.924 -0.5683 -0.5474  0.2215
 1148WAT     H1 3655   3.729   2.234   2.886 -1.7230 -1.6833 -0.4208
 1148WAT     H2 3656   3.841   2.138   2.854  0.8032  0.6940  0.9277
 1149WAT      O 3657   0.091   0.298   3.965  0.0808  0.4434 -0.1605
 1149WAT     H1 3658   0.132   0.327   3.884  0.1163  0.3931 -0.1606
 1149WAT     H2 3659   0.090   0.376   4.021  1.0368  0.2129  0.1916
 1150WAT      O 3660   3.473   0.023   0.587 -0.3599  0.2652 -0.1157
 1150WAT     H1 3661   3.426  -0.051   0.548 -0.3521 -0.5813  1.4369
 1150WAT     H2 3662   3.451   0.097   0.529 -0.1492 -0.9668 -1.8609
 1151WAT      O 3663   3.103   0.562   0.175  0.0038  0.0788  0.5035
 1151WAT     H1 3664   3.105   0.516   0.258  1.4973  1.7047  1.4442
 1151WAT     H2 3665   3.014   0.549   0.141 -0.0005 -2.3203  1.3237
 1152WAT      O 3666   3.640   4.359   1.800 -0.0715  0.3598  0.2495
 1152WAT     H1 3667   3.639   4.272   1.841  1.7559  0.3628  0.3866
 1152WAT     H2 3668   3.638   4.420   1.874  0.9790  0.3875  0.2705
 1153WAT      O 3669   3.447   0.728   1.089  0.0383  0.2945  0.5263
 1153WAT     H1 3670   3.423   0.690   1.005  0.0407  1.4090  0.0109
 1153WAT     H2 3671   3.366   0.729   1.139 -0.1197  0.3167  0.2701
 1154WAT      O 3672   3.202   0.194   4.521  0.1933 -0.3448 -0.5066
 1154WAT     H1 3673   3.178   0.145   4.600 -3.1075  1.4320 -0.2336
 1154WAT     H2 3674   3.255   0.267   4.554 -2.7135  1.4927  0.5710
 1155WAT      O 3675   4.172   0.498   5.126 -0.8210 -0.1250  0.2298
 1155WAT     H1 3676   4.211   0.562   5.067  0.4263  0.5129  1.6603
 1155WAT     H2 3677   4.202   0.413   5.093 -1.3994  0.0957 -0.9127
 1156WAT      O 3678   3.282   0.957   0.698 -0.7604 -0.1078  0.0252
 1156WAT     H1 3679   3.253   1.020   0.764  1.0735 -0.6497  1.4442
 1156WAT     H2 3680   3.263   0.871   0.737 -1.0804 -0.4533 -0.8570
 1157WAT      O 3681   2.303   1.669   3.118 -0.2451  0.3445  0.1497
 1157WAT     H1 3682   2.393   1.679   3.088 -0.3582  0.1593 -0.2644
 1157WAT     H2 3683   2.262   1.754   3.102 -0.7274 -0.1913 -1.7045
 1158WAT      O 3684   0.044   4.492   3.711  0.1319 -0.3671 -0.2834
 1158WAT     H1 3685   0.046   4.559   3.643  0.3413 -0.8813 -0.7892
 1158WAT     H2 3686  -0.049   4.480   3.729  0.0545 -0.5622 -0.8112
 1159WAT      O 3687   0.716   0.356   4.457 -0.5408  0.0212  0.0151
 1159WAT     H1 3688   0.721   0.278   4.401 -2.1086 -0.5072  0.5790
 1159WAT     H2 3689   0.633   0.396   4.434 -1.2681 -0.2547  2.0081
 1160WAT      O 3690   2.717   2.828   1.290  0.1212  0.7597  0.0508
 1160WAT     H1 3691   2.730   2.913   1.331  0.7937 -0.2507  2.0693
 1160WAT     H2 3692   2.636   2.794   1.328 -0.1622  0.5044 -0.7630
 1161WAT      O 3693   3.066   0.925   3.993 -0.4167  0.3277 -0.2141
 1161WAT     H1 3694   3.069   0.999   3.932  0.2895  0.0413 -0.5424
 1161WAT     H2 3695   3.078   0.964   4.079 -0.5000  0.6397 -0.3408
 1162WAT      O 3696   2.467   0.927   0.737  0.7840 -0.2967 -0.1060
 1162WAT     H1 3697   2.523   0.898   0.665  0.3841 -3.9647  0.8622
 1162WAT     H2 3698   2.406   0.989   0.697  2.3606 -0.0422 -2.2556
 1163WAT      O 3699   3.462   0.446   0.447  0.0595  0.1935 -0.3661
 1163WAT     H1 3700   3.509   0.529   0.453  1.9243 -0.9100  3.2626
 1163WAT     H2 3701   3.370   0.470   0.453  0.6169  1.9979  2.6601
 1164WAT      O 3702   1.685   5.198   0.424  0.3732 -0.2727 -0.6198
 1164WAT     H1 3703   1.717   5.127   0.370  1.0524  0.1926 -0.8386
 1164WAT     H2 3704   1.718   5.278   0.383  0.3966  0.1225  0.1298
 1165WAT      O 3705   3.067   5.101   0.930 -0.4687  0.6266 -0.2594
 1165WAT     H1 3706   3.074   5.154   0.851  0.4894  0.4518 -0.3090
 1165WAT     H2 3707   3.111   5.153   0.997 -0.1745  0.2335 -0.1401
 1166WAT      O 3708   1.203   1.012   2.677 -0.3871  0.1932  0.2783
 1166WAT     H1 3709   1.285   0.970   2.705  0.0310  1.2676  0.7368
 1166WAT     H2 3710   1.134   0.961   2.720  0.0105 -0.9770 -0.4462
 1167WAT      O 3711   4.634   4.029   4.551 -0.2671 -0.1790 -0.0167
 1167WAT     H1 3712   4.665   4.031   4.641  2.1934  1.0639 -0.7983
 1167WAT     H2 3713   4.647   3.938   4.523  1.1459 -0.0629  0.2175
 1168WAT      O 3714   0.422   4.110   2.406  0.0317  0.2473  0.4431
 1168WAT     H1 3715   0.472   4.091   2.327  0.9376 -0.6104  1.1943
 1168WAT     H2 3716   0.466   4.059   2.475 -1.4420  0.0311  1.2648
 1169WAT      O 3717   1.798   4.773   5.844  0.3561  0.0564  0.3090
 1169WAT     H1 3718   1.744   4.763   5.766  0.0803 -0.8326  0.6045
 1169WAT     H2 3719   1.849   4.853   5.828 -0.5608  0.5380 -0.2524
 1170WAT      O 3720   3.923   5.623   2.935  0.0156  0.5310 -0.5241
 1170WAT     H1 3721   4.007   5.589   2.967  0.3312  0.0266 -1.8333
 1170WAT     H2 3722   3.905   5.699   2.991 -0.0281 -0.9398  1.5821
 1171WAT      O 3723   3.407   5.216   0.565 -0.5000  0.2351  0.1716
 1171WAT     H1 3724   3.366   5.296   0.531 -1.4003 -0.0214  0.6286
 1171WAT     H2 3725   3.334   5.156   0.579  0.0640 -0.3293  0.7530
 1172WAT      O 3726   2.448   3.144   0.171  0.5312 -0.1744  0.0768
 1172WAT     H1 3727   2.490   3.229   0.181 -0.1702  0.0187  1.5863
 1172WAT     H2 3728   2.375   3.160   0.111  1.4288 -0.1041 -1.0208
 1173WAT      O 3729   2.483   5.403   3.576  0.4527 -0.0525  0.2033
 1173WAT     H1 3730   2.446   5.483   3.613  0.9106  0.4578 -0.4071
 1173WAT     H2 3731   2.559   5.433   3.527  0.6393 -0.8714 -0.0207
 1174WAT      O 3732   0.140   0.161   4.212 -0.0015  0.1586  0.0054
 1174WAT     H1 3733   0.094   0.194   4.136  0.6182 -0.8889 -0.8494
 1174WAT     H2 3734   0.172   0.239   4.257 -0.7766  0.8005 -0.5360
 1175WAT      O 3735   3.457   1.830   4.967  0.4186 -0.6054 -0.4871
 1175WAT     H1 3736   3.408   1.894   4.916  1.3791 -0.9008 -1.8552
 1175WAT     H2 3737   3.543   1.826   4.924  0.5007 -2.5296 -0.2400
 1176WAT      O 3738   0.748   0.898   2.929 -0.2406  0.1154  0.0727
 1176WAT     H1 3739   0.683   0.829   2.918 -2.5825  2.0441  0.8701
 1176WAT     H2 3740   0.798   0.872   3.006  0.8305 -1.9727 -1.2215
 1177WAT      O 3741   0.340   3.188   2.528  0.5486 -0.1544  0.3215
 1177WAT     H1 3742   0.396   3.249   2.479  0.5104 -0.4832 -0.1379
 1177WAT     H2 3743   0.317   3.121   2.464  0.5171 -0.6051  0.8027
 1178WAT      O 3744   3.443   2.129   1.596 -0.1092  0.0333  0.0305
 1178WAT     H1 3745   3.520   2.075   1.581  0.0859  0.2014  0.4235
 1178WAT     H2 3746   3.369   2.072   1.573  0.1834  0.6002 -2.5972
 1179WAT      O 3747   1.917   4.250   2.289  0.5859 -0.0314 -0.0857
 1179WAT     H1 3748   1.924   4.194   2.212  3.1542 -2.6144  1.8098
 1179WAT     H2 3749   1.859   4.201   2.348  3.0763 -1.0576  1.7003
 1180WAT      O 3750   1.573   2.162   0.995  0.1935 -0.1562  0.2211
 1180WAT     H1 3751   1.546   2.198   0.911  0.6328  0.2107  0.2308
 1180WAT     H2 3752   1.609   2.076   0.975  3.3481  1.1969 -0.4485
 1181WAT      O 3753   3.208   2.617   1.479  0.4249  0.3622 -0.3733
 1181WAT     H1 3754   3.137   2.554   1.486  0.4961  0.4377  1.8146
 1181WAT     H2 3755   3.287   2.565   1.495  0.6306  0.7122 -0.2382
 1182WAT      O 3756   4.969   1.085   3.559 -0.1101 -0.0433 -0.3463
 1182WAT     H1 3757   4.959   1.017   3.625  0.8007  0.2936  0.1558
 1182WAT     H2 3758   4.897   1.146   3.577  0.8597  0.7193  1.1900
 1183WAT      O 3759   4.119   4.526   5.437 -0.0265  0.5334 -0.5030
 1183WAT     H1 3760   4.069   4.479   5.503  1.5246  0.4002  0.6227
 1183WAT     H2 3761   4.167   4.458   5.390 -2.1116  0.4738 -2.7434
 1184WAT      O 3762   0.927   3.825   1.788  0.5375  0.1968  0.0969
 1184WAT     H1 3763   0.961   3.843   1.700 -1.4955  1.4474 -0.5038
 1184WAT     H2 3764   1.000   3.783   1.834  2.6979  2.2459 -1.2268
 1185WAT      O 3765   1.949   0.234   1.522  0.4605  0.9949  0.0307
 1185WAT     H1 3766   2.042   0.220   1.539  1.3747  0.2754 -4.3260
 1185WAT     H2 3767   1.908   0.149   1.539  0.5869  1.2432  1.7138
 1186WAT      O 3768   1.523   0.911   4.573 -1.1633  0.0555  0.2952
 1186WAT     H1 3769   1.485   0.942   4.491 -0.5734  0.2060  0.0704
 1186WAT     H2 3770   1.449   0.905   4.633 -1.6511 -0.3830 -0.3426
 1187WAT      O 3771   4.520   1.707   3.397 -0.4181  0.2521  0.1485
 1187WAT     H1 3772   4.497   1.711   3.490 -0.3084 -1.0462  0.2517
 1187WAT     H2 3773   4.514   1.797   3.367 -1.9170  0.5000  1.0629
 1188WAT      O 3774   4.493   2.101   2.961 -0.0989  0.3883  0.2686
 1188WAT     H1 3775   4.582   2.113   2.930 -0.0379 -0.1080  0.2502
 1188WAT     H2 3776   4.492   2.014   3.001 -0.1936  0.9623  1.5891
 1189WAT      O 3777   0.553   1.391   2.524 -0.2505 -0.3749  0.0131
 1189WAT     H1 3778   0.644   1.388   2.497 -0.4220 -1.5584 -0.5259
 1189WAT     H2 3779   0.526   1.482   2.510  0.9568  0.0937  0.6181
 1190WAT      O 3780   2.789   1.357   3.413 -0.3727 -0.4539 -0.4633
 1190WAT     H1 3781   2.855   1.320   3.354 -0.3657 -1.4322  0.1388
 1190WAT     H2 3782   2.829   1.439   3.444 -1.5166  1.6255 -3.9334
 1191WAT      O 3783   1.490   1.823   2.583 -0.0637 -0.1957 -0.2059
 1191WAT     H1 3784   1.565   1.793   2.634  0.7515  1.5670 -0.3025
 1191WAT     H2 3785   1.494   1.772   2.502  1.8349  0.7736 -0.7776
 1192WAT      O 3786   0.462   0.854   4.158  0.0705  0.3045 -0.6077
 1192WAT     H1 3787   0.478   0.776   4.211 -1.5088  1.6769  2.1141
 1192WAT     H2 3788   0.542   0.906   4.167  0.0565  0.2395 -0.0982
 1193WAT      O 3789   0.071   1.288   3.932  0.1592 -0.3088  0.1665
 1193WAT     H1 3790   0.017   1.233   3.989 -0.8200 -0.2304 -0.6691
 1193WAT     H2 3791   0.046   1.263   3.843  1.1403  0.0941 -0.2394
 1194WAT      O 3792   3.106   3.360   0.820  0.3904  0.0707  0.3554
 1194WAT     H1 3793   3.107   3.443   0.771 -0.7836 -0.0059  0.1689
 1194WAT     H2 3794   3.013   3.336   0.824  0.7377 -1.4077  0.1352
 1195WAT      O 3795   1.535   0.686   1.109 -0.3406 -0.1756  0.1789
 1195WAT     H1 3796   1.550   0.612   1.167 -1.0291  0.6426  1.4636
 1195WAT     H2 3797   1.588   0.756   1.146  0.2290  0.0097 -0.9637
 1196WAT      O 3798   2.541   2.033   3.334  0.0613  0.7551 -0.5040
 1196WAT     H1 3799   2.449   2.007   3.340  0.2360  0.2433  0.0810
 1196WAT     H2 3800   2.584   1.959   3.291  0.8605 -0.8239  2.6418
 1197WAT      O 3801   0.641   3.625   5.053  0.2925 -0.1936  0.0394
 1197WAT     H1 3802   0.600   3.563   4.994  0.1803 -0.8985  0.8363
 1197WAT     H2 3803   0.719   3.655   5.007 -0.4988  0.3019 -1.0167
 1198WAT      O 3804   1.168   0.367   1.884  0.2290  0.2622  0.2898
 1198WAT     H1 3805   1.196   0.286   1.926 -1.0581 -0.7737 -0.7548
 1198WAT     H2 3806   1.244   0.425   1.891  1.4864 -1.3151  0.3410
 1199WAT      O 3807   2.300   1.180   2.953 -0.6312  0.0687  0.0332
 1199WAT     H1 3808   2.221   1.228   2.976 -0.5890 -0.1878  0.7631
 1199WAT     H2 3809   2.367   1.214   3.013  0.5492  2.2180 -2.3044
 1200WAT      O 3810   2.124   3.032   5.039 -0.3299  0.3019 -0.1503
 1200WAT     H1 3811   2.133   2.983   4.957  0.0591 -0.3482  0.2651
 1200WAT     H2 3812   2.081   2.970   5.098  0.2761  0.4120  0.4198
 1201WAT      O 3813   0.630   5.521   2.009  0.1428  0.0496 -0.3639
 1201WAT     H1 3814   0.702   5.517   2.071 -1.1231 -0.2227  1.1585
 1201WAT     H2 3815   0.645   5.448   1.949  0.4834 -0.7594  0.6843
 1202WAT      O 3816   2.347   2.263   2.697 -0.4177 -0.2850  0.4501
 1202WAT     H1 3817   2.387   2.187   2.656 -1.4808 -0.3711 -0.4799
 1202WAT     H2 3818   2.284   2.295   2.632 -0.9658  0.5691  1.3739
 1203WAT      O 3819   3.041   2.898   0.721 -0.1273 -0.0198  0.2314
 1203WAT     H1 3820   3.062   2.913   0.813 -1.4486  0.9715  0.4016
 1203WAT     H2 3821   3.077   2.811   0.702  1.2840  0.2954  1.3107
 1204WAT      O 3822   2.068   3.496   4.666 -0.0941  0.4482  0.1450
 1204WAT     H1 3823   2.108   3.415   4.698  0.8496 -0.2834 -2.6057
 1204WAT     H2 3824   2.126   3.525   4.595 -0.5934  3.3885  0.8110
 1205WAT      O 3825   2.700   4.764   4.815 -0.1041  0.2384  0.3006
 1205WAT     H1 3826   2.781   4.757   4.865 -0.0186 -1.7835 -0.0393
 1205WAT     H2 3827   2.726   4.806   4.733  0.1840  1.4693  1.0015
 1206WAT      O 3828   2.597   5.079   2.033 -0.2203  0.1005  0.1844
 1206WAT     H1 3829   2.576   5.148   2.095 -1.4186 -0.1607  0.0950
 1206WAT     H2 3830   2.646   5.123   1.963  0.4759  0.5317  0.9341
 1207WAT      O 3831   1.607   0.973   2.355  0.1829  0.4100 -0.7412
 1207WAT     H1 3832   1.571   0.997   2.270  0.4215 -0.6996 -1.1736
 1207WAT     H2 3833   1.609   1.055   2.404 -1.9373  0.6940 -1.0525
 1208WAT      O 3834   4.327   2.899   1.985  0.4518 -0.1436 -0.1903
 1208WAT     H1 3835   4.350   2.959   2.056 -0.1501  0.5022 -0.5216
 1208WAT     H2 3836   4.369   2.816   2.008 -0.9117 -0.3778  1.6596
 1209WAT      O 3837   3.829   2.704   2.802  0.1954 -0.5705 -0.6714
 1209WAT     H1 3838   3.842   2.651   2.881  1.5903 -1.1168 -1.2156
 1209WAT     H2 3839   3.917   2.712   2.765 -0.0543  1.7358 -0.8951
 1210WAT      O 3840   3.721   1.787   4.865  0.0722 -0.0145  0.0143
 1210WAT     H1 3841   3.769   1.714   4.826  0.6816 -0.3704  1.3589
 1210WAT     H2 3842   3.782   1.861   4.862  0.0833 -0.0159  0.2092
 1211WAT      O 3843   2.333   0.419   5.826  0.2783  0.4778  0.3028
 1211WAT     H1 3844   2.389   0.406   5.749 -0.6997 -0.7190 -0.2438
 1211WAT     H2 3845   2.268   0.484   5.797 -0.8329 -0.8655 -0.3404
 1212WAT      O 3846   3.151   2.041   0.931  0.5594  0.3934  0.4562
 1212WAT     H1 3847   3.213   1.988   0.880  0.4544  0.0952  0.6407
 1212WAT     H2 3848   3.146   1.998   1.016 -0.5250 -0.0685  0.1825
 1213WAT      O 3849   2.631   4.375   5.620  0.7734 -0.3509  0.0618
 1213WAT     H1 3850   2.535   4.379   5.622  0.7278 -1.0275 -0.2893
 1213WAT     H2 3851   2.652   4.367   5.527  1.1771 -0.1061  0.1312
 1214WAT      O 3852   2.732   5.163   5.713 -0.7143 -0.1158 -0.2556
 1214WAT     H1 3853   2.733   5.253   5.746 -1.4319 -0.9717  2.3200
 1214WAT     H2 3854   2.824   5.140   5.701 -0.4880  0.6669 -0.0669
 1215WAT      O 3855   1.415   5.448   0.903  0.2826 -0.3772 -0.5805
 1215WAT     H1 3856   1.415   5.383   0.972 -1.2067 -0.9639 -1.0867
 1215WAT     H2 3857   1.507   5.461   0.882  0.6212 -2.4017 -0.5387
 1216WAT      O 3858   2.842   1.029   1.331  0.1510 -0.4949  0.2216
 1216WAT     H1 3859   2.763   1.075   1.302  0.3431 -2.0498 -3.3081
 1216WAT     H2 3860   2.809   0.951   1.376 -0.1887  0.6570  2.0894
 1217WAT      O 3861   1.070   0.055   5.178  0.1259  0.2970  0.3139
 1217WAT     H1 3862   1.162   0.032   5.173 -0.0085 -0.2986  0.4997
 1217WAT     H2 3863   1.069   0.141   5.222  0.6324  0.7200 -0.4805
 1218WAT      O 3864   2.647   3.198   5.738  0.6711 -1.2129  0.2853
 1218WAT     H1 3865   2.666   3.252   5.661  1.3539 -1.8521 -0.0061
 1218WAT     H2 3866   2.591   3.253   5.793 -2.3388 -1.7241 -1.9595
 1219WAT      O 3867   3.641   1.956   3.653  0.4715 -0.7734 -0.1574
 1219WAT     H1 3868   3.628   1.883   3.713 -1.2046 -0.5950 -0.2529
 1219WAT     H2 3869   3.581   1.938   3.580 -1.6565  1.7471  0.8132
 1220WAT      O 3870   4.708   5.405   2.042  0.2628  0.7446 -0.5094
 1220WAT     H1 3871   4.636   5.463   2.070  1.2745  2.1595 -0.7273
 1220WAT     H2 3872   4.673   5.359   1.966  0.0193  2.4399 -1.4745
 1221WAT      O 3873   3.036   4.348   1.992 -0.3092 -0.8173  0.1364
 1221WAT     H1 3874   3.080   4.402   1.926  2.1422 -2.0566  0.6147
 1221WAT     H2 3875   3.062   4.387   2.075 -0.7232 -1.1474  0.4208
 1222WAT      O 3876   3.170   1.940   2.881 -0.4027 -0.0423 -0.5731
 1222WAT     H1 3877   3.087   1.987   2.870 -0.8195 -0.3422  0.9422
 1222WAT     H2 3878   3.154   1.853   2.846 -1.7840 -1.0871  2.3228
 1223WAT      O 3879   0.415   3.121   2.783  0.3560  0.4220  0.3094
 1223WAT     H1 3880   0.370   3.176   2.847  0.0684 -0.5092  0.9278
 1223WAT     H2 3881   0.393   3.159   2.698 -0.5423  0.7420  0.6836
 1224WAT      O 3882   2.920   2.362   5.541 -0.2074  0.0916 -0.2479
 1224WAT     H1 3883   2.832   2.399   5.538 -0.1321  0.4467  1.0309
 1224WAT     H2 3884   2.977   2.435   5.517 -0.2846 -0.3537 -1.8836
 1225WAT      O 3885   3.108   0.738   5.485  0.0544  0.4667 -0.3658
 1225WAT     H1 3886   3.196   0.768   5.507 -0.4315  0.9268  0.9885
 1225WAT     H2 3887   3.087   0.783   5.403  1.1421  0.1960 -0.8089
 1226WAT      O 3888   2.993   1.692   4.597  0.4147 -0.1658  0.5582
 1226WAT     H1 3889   2.985   1.657   4.508 -0.1249 -0.4970  0.7367
 1226WAT     H2 3890   3.065   1.642   4.636  1.6250  0.9550 -0.1494
 1227WAT      O 3891   2.033   3.366   0.753  0.0430 -0.3411 -0.3289
 1227WAT     H1 3892   2.089   3.413   0.690  0.4887  0.0553  0.3560
 1227WAT     H2 3893   2.085   3.363   0.833  0.1253 -2.1774 -0.3957
 1228WAT      O 3894   2.456   5.350   5.762  0.2739  0.0225  0.3327
 1228WAT     H1 3895   2.423   5.282   5.821 -1.7348  1.1479  0.5969
 1228WAT     H2 3896   2.424   5.324   5.676  1.7359 -0.7054 -0.0176
 1229WAT      O 3897   1.796   2.628   5.721  0.2257 -0.2724 -0.0360
 1229WAT     H1 3898   1.859   2.590   5.782 -0.1616  1.3767  1.4586
 1229WAT     H2 3899   1.732   2.672   5.776 -2.3987 -1.9666 -1.4604
 1230WAT      O 3900   2.338   1.494   1.006 -0.0992 -0.1480 -0.1752
 1230WAT     H1 3901   2.380   1.557   1.064  2.5034 -0.4490 -1.5715
 1230WAT     H2 3902   2.387   1.413   1.018 -1.2891 -0.9973 -0.7767
 1231WAT      O 3903   3.419   2.695   2.790  0.6035 -0.3357 -0.4189
 1231WAT     H1 3904   3.499   2.708   2.841  1.2749  0.4640 -1.6013
 1231WAT     H2 3905   3.436   2.743   2.708 -2.4439  2.8687  0.6170
 1232WAT      O 3906   2.866   3.269   0.868  0.1578 -0.8768 -0.1329
 1232WAT     H1 3907   2.819   3.339   0.823 -0.0872 -0.5437  0.6325
 1232WAT     H2 3908   2.809   3.193   0.859 -0.3879 -0.5520  0.5179
 1233WAT      O 3909   1.971   0.437   0.301  0.2058 -0.2838 -0.0198
 1233WAT     H1 3910   1.967   0.434   0.397 -0.1683 -1.7941 -0.0463
 1233WAT     H2 3911   1.921   0.359   0.273  0.3886  0.0817 -1.4346
 1234WAT      O 3912   1.279   3.587   0.427  0.4304 -0.2744  0.5764
 1234WAT     H1 3913   1.258   3.611   0.337 -0.6129  0.5893  1.0351
 1234WAT     H2 3914   1.269   3.668   0.477  1.8890 -0.5258  1.3454
 1235WAT      O 3915   2.491   0.977   4.060  0.2290 -0.2496  0.2136
 1235WAT     H1 3916   2.496   1.053   4.118 -1.6509 -0.8451  1.2271
 1235WAT     H2 3917   2.405   0.984   4.019 -0.9440 -2.9373  1.9751
 1236WAT      O 3918   4.820   0.267   4.690 -0.4562  0.0284  0.4485
 1236WAT     H1 3919   4.855   0.354   4.712  1.4707 -0.8243  0.9663
 1236WAT     H2 3920   4.863   0.244   4.608 -2.3416  0.2622 -0.6690
 1237WAT      O 3921   2.151   3.720   0.831  0.1989  0.2894 -0.3717
 1237WAT     H1 3922   2.242   3.697   0.851  0.2437  0.3737 -0.4711
 1237WAT     H2 3923   2.159   3.794   0.770  0.0620  0.5369 -0.0927
 1238WAT      O 3924   4.578   0.872   4.527 -0.0109  0.1831  0.2299
 1238WAT     H1 3925   4.542   0.818   4.457 -0.2930  1.3987 -0.5993
 1238WAT     H2 3926   4.541   0.835   4.607 -0.8155 -0.3594 -0.3738
 1239WAT      O 3927   2.447   5.047   4.499  0.2225 -0.0667 -0.2711
 1239WAT     H1 3928   2.454   4.952   4.492  0.0692  0.0177 -2.1118
 1239WAT     H2 3929   2.515   5.072   4.562  1.3661 -1.2695 -0.9823
 1240WAT      O 3930   1.780   4.705   4.238  0.0670  0.3680 -0.5462
 1240WAT     H1 3931   1.835   4.662   4.173  0.9185  0.4787  0.0867
 1240WAT     H2 3932   1.752   4.786   4.196  2.2368  1.4248 -0.1102
 1241WAT      O 3933   1.845   1.506   4.816  0.3022  0.5399  0.5804
 1241WAT     H1 3934   1.936   1.484   4.836 -0.4190 -1.1814  2.3143
 1241WAT     H2 3935   1.796   1.476   4.893 -2.1068 -1.4831 -1.5675
 1242WAT      O 3936   2.053   5.642   0.717  0.0795 -0.1830  0.5616
 1242WAT     H1 3937   2.123   5.697   0.752 -0.2848  0.6167  0.0698
 1242WAT     H2 3938   2.055   5.563   0.771  2.1173 -0.6960 -0.1579
 1243WAT      O 3939   3.614   4.419   5.570  0.3142 -0.1218 -0.3855
 1243WAT     H1 3940   3.601   4.396   5.478  1.7461  0.0339 -0.6508
 1243WAT     H2 3941   3.690   4.368   5.597  1.0194  1.1805  0.1838
 1244WAT      O 3942   2.528   4.764   4.099 -0.4094  0.2460  0.3893
 1244WAT     H1 3943   2.613   4.808   4.100 -0.6897  0.7943  1.4582
 1244WAT     H2 3944   2.526   4.712   4.179 -0.8247 -0.2653  0.0542
 1245WAT      O 3945   0.796   3.626   4.138 -0.7327 -0.5019 -0.2795
 1245WAT     H1 3946   0.817   3.540   4.101  0.7925  0.2125 -1.1330
 1245WAT     H2 3947   0.878   3.656   4.177 -0.0621  2.2275 -3.3961
 1246WAT      O 3948   1.513   3.392   5.131 -0.1704  0.2538 -0.2440
 1246WAT     H1 3949   1.481   3.324   5.071  1.1632 -0.9249  0.3135
 1246WAT     H2 3950   1.597   3.418   5.095  0.2297  0.1873  0.6096
 1247WAT      O 3951   3.830   5.523   1.311 -0.4014 -0.2765 -0.0581
 1247WAT     H1 3952   3.774   5.593   1.343  0.0068  0.6176 -1.2213
 1247WAT     H2 3953   3.773   5.446   1.305 -0.3251 -0.7433  3.5008
 1248WAT      O 3954   3.691   5.433   3.711 -0.5347 -0.5133  0.1427
 1248WAT     H1 3955   3.751   5.442   3.637 -0.5300  1.5801  0.3593
 1248WAT     H2 3956   3.747   5.417   3.786 -0.3991 -0.4477  0.0550
 1249WAT      O 3957   3.327   4.117   4.777  0.3571 -0.0157 -0.2468
 1249WAT     H1 3958   3.416   4.141   4.749 -0.0853  1.9117 -0.1014
 1249WAT     H2 3959   3.298   4.190   4.831 -2.1645  0.5113 -2.1206
 1250WAT      O 3960   2.200   4.124   4.612  0.3921 -0.1816 -0.0962
 1250WAT     H1 3961   2.235   4.110   4.524  0.6538  0.8294 -0.1604
 1250WAT     H2 3962   2.271   4.168   4.659 -1.1735  3.2276 -0.6174
 1251WAT      O 3963   4.911   4.392   4.530  0.3404 -0.2915  0.0433
 1251WAT     H1 3964   4.940   4.374   4.620  2.0663 -1.4262 -0.7021
 1251WAT     H2 3965   4.986   4.370   4.476 -0.7823  0.0793 -1.7302
 1252WAT      O 3966   1.538   3.736   0.680 -0.5084  0.2373 -0.2216
 1252WAT     H1 3967   1.557   3.694   0.763 -0.0265  1.2721  0.2022
 1252WAT     H2 3968   1.572   3.676   0.614  0.3708  0.0549  0.3819
 1253WAT      O 3969   4.162   1.547   3.432  0.0949  0.0562  0.1066
 1253WAT     H1 3970   4.149   1.488   3.505  1.3657 -0.8123 -0.3234
 1253WAT     H2 3971   4.234   1.604   3.459  1.0097 -0.6880 -0.6749
 1254WAT      O 3972   1.763   2.398   5.167  0.0539  0.0872 -0.7876
 1254WAT     H1 3973   1.723   2.390   5.254  1.7506  0.2025  0.0463
 1254WAT     H2 3974   1.770   2.308   5.135  2.6502 -0.3642  0.7817
 1255WAT      O 3975   1.966   3.267   4.964  0.3745 -1.0279 -0.1098
 1255WAT     H1 3976   2.042   3.324   4.961 -0.5013  0.1517 -0.8914
 1255WAT     H2 3977   2.001   3.179   4.949  1.7165 -0.6925  0.8792
 1256WAT      O 3978   0.713   4.895   2.312  0.3680 -0.1997 -0.2658
 1256WAT     H1 3979   0.664   4.914   2.232 -0.0431  0.5605  0.1475
 1256WAT     H2 3980   0.771   4.970   2.322 -0.5739  0.4206  0.8804
 1257WAT      O 3981   4.346   1.647   3.639  0.3557  0.0200  0.3368
 1257WAT     H1 3982   4.363   1.734   3.602  0.3877 -0.6881 -1.4116
 1257WAT     H2 3983   4.269   1.659   3.694  1.3746  1.4972  1.5105
 1258WAT      O 3984   2.636   5.454   0.132  0.3219 -0.3419 -0.2006
 1258WAT     H1 3985   2.572   5.413   0.074  0.0766 -3.5821  2.1080
 1258WAT     H2 3986   2.588   5.528   0.170 -1.5540 -1.6599  0.1749
 1259WAT      O 3987   1.785   5.149   0.684  0.3613  0.9749 -0.3527
 1259WAT     H1 3988   1.719   5.211   0.717 -2.2581 -0.9403 -1.6038
 1259WAT     H2 3989   1.773   5.150   0.590  3.3130  1.6602 -0.8255
 1260WAT      O 3990   2.615   5.514   2.765 -0.0302 -0.0159 -0.4710
 1260WAT     H1 3991   2.521   5.498   2.764 -0.4501  1.9287  0.9201
 1260WAT     H2 3992   2.623   5.609   2.758  1.7849 -0.0666  0.3401
 1261WAT      O 3993   3.300   1.081   5.335  0.1812  0.0177 -0.1562
 1261WAT     H1 3994   3.323   0.988   5.341  0.2035  0.0102 -0.3524
 1261WAT     H2 3995   3.256   1.100   5.418  0.9758  0.0604  0.2599
 1262WAT      O 3996   1.717   3.765   4.788  0.0365  0.0010 -0.2343
 1262WAT     H1 3997   1.661   3.741   4.863 -1.1908 -0.3268 -1.2247
 1262WAT     H2 3998   1.805   3.735   4.814 -0.0852  1.0809  1.6155
 1263WAT      O 3999   2.779   4.272   0.279 -0.3201  0.5380  0.5652
 1263WAT     H1 4000   2.873   4.283   0.294 -0.3822 -0.1600  1.6400
 1263WAT     H2 4001   2.748   4.359   0.254  0.6789  0.6745 -0.2518
 1264WAT      O 4002   4.904   0.176   4.445  0.1125 -0.0222  0.8954
 1264WAT     H1 4003   4.991   0.142   4.466  1.0256  1.3949 -0.3818
 1264WAT     H2 4004   4.860   0.103   4.401  0.9195 -0.5240  0.9005
 1265WAT      O 4005   2.067   2.256   4.775 -0.0417 -0.5284 -0.5602
 1265WAT     H1 4006   2.007   2.329   4.760  0.4805 -0.3226 -1.8306
 1265WAT     H2 4007   2.040   2.189   4.712 -0.1129 -1.1843  0.1543
 1266WAT      O 4008   2.963   5.473   5.332 -0.1532  0.1771  0.8495
 1266WAT     H1 4009   2.869   5.489   5.330 -0.0193  1.0441  1.1229
 1266WAT     H2 4010   3.002   5.560   5.344  0.6696 -0.2047  1.0030
 1267WAT      O 4011   3.461   0.703   2.175 -0.4531 -0.0114  0.3116
 1267WAT     H1 4012   3.415   0.778   2.212  0.4165  0.7854 -0.1703
 1267WAT     H2 4013   3.550   0.710   2.208  0.4407  0.8917 -2.0173
 1268WAT      O 4014   2.688   3.520   4.930 -0.0460 -0.0973  0.1665
 1268WAT     H1 4015   2.681   3.616   4.926  1.3556  0.0390  0.6245
 1268WAT     H2 4016   2.682   3.492   4.839 -1.0132  0.3743  0.0694
 1269WAT      O 4017   3.085   3.516   0.197  0.2220  0.4729  0.3292
 1269WAT     H1 4018   3.160   3.567   0.226  0.0047  1.2271 -0.4175
 1269WAT     H2 4019   3.092   3.434   0.246  0.2400  1.4276  1.9909
 1270WAT      O 4020   0.557   1.568   3.469 -0.1313  0.1038 -0.8044
 1270WAT     H1 4021   0.471   1.591   3.505  0.3882 -0.7583  1.0941
 1270WAT     H2 4022   0.608   1.540   3.545  2.1214  1.4101 -1.7569
 1271WAT      O 4023   2.330   3.560   3.580  0.0345 -0.3005  0.6384
 1271WAT     H1 4024   2.418   3.583   3.550  0.0382 -0.7977  0.2540
 1271WAT     H2 4025   2.321   3.468   3.558 -1.7381  0.4325 -2.2832
 1272WAT      O 4026   2.293   1.688   5.265  0.3910 -0.4921 -0.0909
 1272WAT     H1 4027   2.333   1.760   5.314 -0.5481 -0.1706  0.2274
 1272WAT     H2 4028   2.216   1.728   5.222  0.1326 -1.1941 -0.2970
 1273WAT      O 4029   2.903   2.385   4.538  0.2766 -0.2825 -0.1023
 1273WAT     H1 4030   2.940   2.459   4.587  0.6987  0.2221 -1.1447
 1273WAT     H2 4031   2.812   2.380   4.567  0.5843 -0.1597  0.9092
 1274WAT      O 4032   1.610   3.169   4.934 -0.3165 -0.3807 -0.1800
 1274WAT     H1 4033   1.653   3.107   4.993 -0.9714 -0.5070  0.1676
 1274WAT     H2 4034   1.660   3.250   4.944 -0.8872 -0.1702  1.1285
 1275WAT      O 4035   4.709   1.585   3.214  0.3173 -0.2537  0.0463
 1275WAT     H1 4036   4.641   1.552   3.154 -0.9060  0.8764  0.7682
 1275WAT     H2 4037   4.663   1.648   3.270  1.9043  0.2949  0.7777
 1276WAT      O 4038   3.182   1.728   5.124  0.4431 -0.5566  0.0952
 1276WAT     H1 4039   3.142   1.808   5.159  0.7520 -0.9638  1.4378
 1276WAT     H2 4040   3.262   1.759   5.081 -0.4632  0.0707 -1.2300
 1277WAT      O 4041   1.195   4.816   4.402 -0.4414 -0.5585  0.2183
 1277WAT     H1 4042   1.279   4.809   4.446 -0.5077 -2.6423  0.1100
 1277WAT     H2 4043   1.142   4.871   4.460  1.2685  1.7054 -0.2407
 1278WAT      O 4044   2.509   2.998   3.982  0.2489  0.0862 -0.2401
 1278WAT     H1 4045   2.557   3.081   3.989  1.5409 -0.7211  1.0263
 1278WAT     H2 4046   2.433   3.019   3.929  0.6058  2.0640 -0.0498
 1279WAT      O 4047   2.710   0.125   3.071 -1.3272  0.0128 -0.1511
 1279WAT     H1 4048   2.709   0.203   3.016 -1.5839  0.8680  1.0122
 1279WAT     H2 4049   2.618   0.111   3.095 -1.3847 -1.1200 -0.9687
 1280WAT      O 4050   2.703   3.527   3.883  0.5541 -0.2277 -0.4563
 1280WAT     H1 4051   2.610   3.507   3.895  0.0176  1.8537 -0.7455
 1280WAT     H2 4052   2.720   3.599   3.944  1.8547 -0.2288 -0.7924
 1281WAT      O 4053   4.856   4.888   3.235  0.2980 -0.1180  0.0373
 1281WAT     H1 4054   4.833   4.803   3.274 -1.3030  1.0431  1.7661
 1281WAT     H2 4055   4.943   4.874   3.197  0.9075 -2.0138  1.9358
 1282WAT      O 4056   0.923   3.652   4.899  0.3445  0.5568  0.1528
 1282WAT     H1 4057   0.927   3.746   4.915  1.4238  0.7183 -0.9667
 1282WAT     H2 4058   0.970   3.639   4.817  0.4760 -1.0047  0.4432
 1283WAT      O 4059   1.250   4.384   0.366  0.5034  0.0415  0.5287
 1283WAT     H1 4060   1.312   4.407   0.436  1.2324  1.0339 -0.4085
 1283WAT     H2 4061   1.178   4.446   0.376  0.1732 -0.4034  0.9454
 1284WAT      O 4062   2.303   5.323   1.000 -0.2527  0.8372  0.2329
 1284WAT     H1 4063   2.283   5.251   1.060 -0.8832  2.6929  2.3956
 1284WAT     H2 4064   2.395   5.344   1.018  0.1444  0.1499 -0.9103
 1285WAT      O 4065   2.418   4.578   5.331  0.4610  0.6986 -0.9780
 1285WAT     H1 4066   2.486   4.520   5.296  0.2419  0.2526 -0.6730
 1285WAT     H2 4067   2.459   4.664   5.335  2.1620 -0.0960  2.2654
 1286WAT      O 4068   1.676   3.151   3.558  0.0224 -0.7004  0.2047
 1286WAT     H1 4069   1.664   3.151   3.463 -0.5358 -1.3347  0.2737
 1286WAT     H2 4070   1.593   3.186   3.592  0.4027 -0.0033  0.4450
 1287WAT      O 4071   2.923   4.529   4.246  0.0860 -0.1728 -0.7356
 1287WAT     H1 4072   2.850   4.530   4.184 -0.7312 -1.1061  0.1700
 1287WAT     H2 4073   2.924   4.439   4.279  2.7268 -0.6670 -1.9466
 1288WAT      O 4074   2.390   3.934   4.878 -0.2254  0.0283  0.1244
 1288WAT     H1 4075   2.404   3.909   4.787  0.1591  1.0302 -0.1004
 1288WAT     H2 4076   2.300   3.907   4.896  0.2401 -1.7855  0.0145
 1289WAT      O 4077   2.661   4.275   2.825  0.0960 -0.1855 -0.0139
 1289WAT     H1 4078   2.606   4.256   2.901 -0.0049  0.4695  0.0824
 1289WAT     H2 4079   2.626   4.357   2.791 -0.2876 -0.8063 -1.1674
 1290WAT      O 4080   1.752   2.898   4.493  0.0768  0.3141 -0.3426
 1290WAT     H1 4081   1.713   2.956   4.558  1.3138 -0.0912  0.8128
 1290WAT     H2 4082   1.846   2.919   4.495  0.0098  1.3609 -3.1205
 1291WAT      O 4083   2.222   3.352   1.213 -0.2000  0.4781  0.1421
 1291WAT     H1 4084   2.289   3.299   1.256 -0.7589 -0.3773 -0.0219
 1291WAT     H2 4085   2.222   3.435   1.262 -0.0879 -0.0834  1.1142
 1292WAT      O 4086   2.426   3.467   3.902 -0.9258 -0.2020 -0.2806
 1292WAT     H1 4087   2.406   3.560   3.890 -1.8912 -0.4990 -1.1198
 1292WAT     H2 4088   2.359   3.421   3.851 -0.9422 -1.3885  0.7474
 1293WAT      O 4089   0.338   4.112   1.531 -0.6024  0.5992  0.2862
 1293WAT     H1 4090   0.295   4.164   1.599 -0.6580 -0.5919  1.1994
 1293WAT     H2 4091   0.431   4.122   1.548 -0.6231 -0.2611  1.0210
 1294WAT      O 4092   0.738   0.044   2.846 -0.5263  0.2254  0.1647
 1294WAT     H1 4093   0.705  -0.027   2.901 -2.0130 -0.5714 -1.6358
 1294WAT     H2 4094   0.689   0.036   2.765 -0.6009  3.2059 -0.2063
 1295WAT      O 4095   0.785   4.750   4.483 -0.6672 -0.1172  0.0394
 1295WAT     H1 4096   0.754   4.838   4.463 -1.0358 -0.4351 -0.7903
 1295WAT     H2 4097   0.740   4.693   4.421 -0.2621 -0.8710  0.4210
 1296WAT      O 4098   4.304   3.945   2.060 -0.0924  0.1194  0.3646
 1296WAT     H1 4099   4.331   4.015   2.119  0.3205  1.1029 -0.9335
 1296WAT     H2 4100   4.364   3.873   2.080 -0.5366  0.1157  1.7331
 1297WAT      O 4101   1.889   0.870   3.212  0.8294  0.0226 -0.0215
 1297WAT     H1 4102   1.850   0.812   3.147 -0.7255  0.8695  0.1003
 1297WAT     H2 4103   1.884   0.957   3.173  1.9558  0.2624  0.3240
 1298WAT      O 4104   1.610   5.207   2.945  0.0190  0.2830 -0.1956
 1298WAT     H1 4105   1.698   5.230   2.914 -0.1324  2.8041  0.9890
 1298WAT     H2 4106   1.562   5.187   2.865  1.8720 -2.2266 -0.8094
 1299WAT      O 4107   1.431   4.470   5.400 -0.1076  0.2457 -0.1598
 1299WAT     H1 4108   1.462   4.410   5.332  3.0878 -1.3596  2.4421
 1299WAT     H2 4109   1.372   4.529   5.354 -0.9276 -2.8381 -3.5813
 1300WAT      O 4110   3.746   2.597   1.724  1.0334  0.3543  0.0300
 1300WAT     H1 4111   3.702   2.528   1.674  0.3370  1.3389 -0.7680
 1300WAT     H2 4112   3.824   2.555   1.760  0.7326 -0.7890 -0.6013
 1301WAT      O 4113   2.903   0.942   0.527  0.5915  0.3203  0.0706
 1301WAT     H1 4114   2.965   0.917   0.458 -0.1997 -1.2898 -0.1144
 1301WAT     H2 4115   2.914   0.875   0.594 -0.3659  0.4652  0.3927
 1302WAT      O 4116   3.555   4.228   0.589  0.4387  0.4187  0.8148
 1302WAT     H1 4117   3.511   4.294   0.535 -0.2154  0.0607  0.9029
 1302WAT     H2 4118   3.625   4.194   0.533 -1.7301 -1.7339 -0.8456
 1303WAT      O 4119   2.792   4.288   4.371  0.1916  0.4453  0.3754
 1303WAT     H1 4120   2.759   4.265   4.284  1.0544  1.1825 -0.1673
 1303WAT     H2 4121   2.826   4.206   4.406 -0.1354  0.1489  0.0029
 1304WAT      O 4122   4.444  -0.015   3.862 -0.5429  0.8254 -0.3642
 1304WAT     H1 4123   4.396   0.067   3.862  1.6899  2.2137  0.1924
 1304WAT     H2 4124   4.465  -0.032   3.954  0.1529  0.3475 -0.5942
 1305WAT      O 4125   2.412   5.348   5.454 -0.4980 -0.2798  0.4029
 1305WAT     H1 4126   2.507   5.348   5.447 -0.5275 -1.5391 -0.2863
 1305WAT     H2 4127   2.382   5.312   5.371 -1.6736  1.8067 -0.1695
 1306WAT      O 4128   3.130   2.978   4.393  0.4152 -0.4835  0.0355
 1306WAT     H1 4129   3.140   3.060   4.441 -0.0591 -0.3352 -0.1135
 1306WAT     H2 4130   3.139   3.003   4.301  1.0954 -0.7317  0.0270
 1307WAT      O 4131   3.568   4.359   5.320 -0.4091  0.0585  0.5950
 1307WAT     H1 4132   3.533   4.424   5.259 -0.5450 -1.0090 -0.5158
 1307WAT     H2 4133   3.526   4.277   5.293 -0.2728 -0.4854  1.9868
 1308WAT      O 4134   1.616   0.848   5.170  0.0975 -0.1592 -0.2722
 1308WAT     H1 4135   1.555   0.856   5.097 -0.5905 -0.7679  0.2291
 1308WAT     H2 4136   1.629   0.754   5.181 -0.1804 -0.0930  0.6993
 1309WAT      O 4137   3.175   2.937   0.976  0.5796  0.0478 -0.6721
 1309WAT     H1 4138   3.250   2.987   1.009 -0.0694  0.4073  0.2938
 1309WAT     H2 4139   3.099   2.977   1.018 -0.2048 -0.0419 -1.9584
 1310WAT      O 4140   2.127   0.915   5.181  0.4649  0.1160 -0.6077
 1310WAT     H1 4141   2.053   0.856   5.170 -1.1501  2.3150 -2.6841
 1310WAT     H2 4142   2.142   0.918   5.275 -1.2801 -1.3499 -0.2437
 1311WAT      O 4143   1.089   5.290   2.536 -0.3598 -0.0689 -0.0506
 1311WAT     H1 4144   1.118   5.217   2.590 -1.1697 -0.4234 -0.0724
 1311WAT     H2 4145   1.169   5.334   2.509  0.1274 -0.8300  0.1323
 1312WAT      O 4146   2.296   1.995   4.418  0.0600 -0.2923 -0.4230
 1312WAT     H1 4147   2.355   1.952   4.480  0.1368 -1.1327 -1.0638
 1312WAT     H2 4148   2.212   1.998   4.462 -0.0474 -1.4817 -0.5157
 1313WAT      O 4149   3.679   2.265   4.048 -0.4703 -0.3654  0.2354
 1313WAT     H1 4150   3.628   2.252   4.127 -0.8200  1.2030  0.2925
 1313WAT     H2 4151   3.620   2.238   3.977 -0.9053  0.1841  0.3836
 1314WAT      O 4152   3.247   3.280   4.124 -0.6562 -0.1352 -0.0536
 1314WAT     H1 4153   3.187   3.321   4.062 -1.6170 -1.5746 -0.1075
 1314WAT     H2 4154   3.219   3.189   4.129  1.4046 -0.8125  0.0873
 1315WAT      O 4155   1.405   5.057   0.130 -0.0479 -0.1506 -0.5966
 1315WAT     H1 4156   1.465   4.983   0.134 -0.5347 -0.5259  0.0114
 1315WAT     H2 4157   1.409   5.096   0.218 -0.1640  0.2450 -0.7641
 1316WAT      O 4158   1.723   0.004   1.960  0.0453 -0.2244 -0.0451
 1316WAT     H1 4159   1.770   0.000   2.044 -0.1003  0.7515  0.0969
 1316WAT     H2 4160   1.759   0.081   1.916 -1.6379  0.7713  0.2222
 1317WAT      O 4161   3.858   4.646   4.734  0.7583 -0.2491  0.4646
 1317WAT     H1 4162   3.774   4.673   4.771  0.8957 -0.0740  0.6513
 1317WAT     H2 4163   3.885   4.719   4.678  0.1424 -0.8640 -0.6776
 1318WAT      O 4164   0.396   0.636   2.677  0.2796 -0.2418 -0.0413
 1318WAT     H1 4165   0.433   0.716   2.642  1.1656 -0.8649 -0.5844
 1318WAT     H2 4166   0.424   0.634   2.768 -0.4493  0.4615  0.2081
 1319WAT      O 4167   1.754   3.662   4.341 -0.3418 -0.2462  0.1071
 1319WAT     H1 4168   1.816   3.726   4.305  3.0647 -2.9257  0.6651
 1319WAT     H2 4169   1.692   3.715   4.392  1.7640  2.6624 -0.0795
 1320WAT      O 4170   3.470   0.959   2.562 -0.1739  0.3877 -0.4965
 1320WAT     H1 4171   3.536   1.011   2.608  0.0755 -1.0932  0.9025
 1320WAT     H2 4172   3.517   0.881   2.534 -1.5421 -1.3795  1.7588
 1321WAT      O 4173   1.680   4.051   3.425 -0.0531 -0.1530  0.0095
 1321WAT     H1 4174   1.712   4.138   3.450 -0.0780 -0.5830  1.6617
 1321WAT     H2 4175   1.752   4.013   3.374  0.4808  0.3692  0.3503
 1322WAT      O 4176   0.647   3.126   4.639 -0.3775  0.2121  0.1701
 1322WAT     H1 4177   0.565   3.164   4.609 -1.4830 -0.8923  1.6287
 1322WAT     H2 4178   0.687   3.195   4.693 -1.1930  0.1568  0.8528
 1323WAT      O 4179   1.869   0.632   3.679  0.0054 -1.0650  0.2490
 1323WAT     H1 4180   1.817   0.597   3.752 -1.7804  2.4616  0.8997
 1323WAT     H2 4181   1.805   0.659   3.614  1.3151 -0.2579 -0.7591
 1324WAT      O 4182   0.847   2.270   5.172 -0.4632  0.1989 -0.4283
 1324WAT     H1 4183   0.849   2.195   5.231  0.2460  0.2425 -0.3894
 1324WAT     H2 4184   0.767   2.318   5.196 -1.3330 -0.9459 -0.9715
 1325WAT      O 4185   1.640   1.885   5.118  0.4964 -0.0911  0.7282
 1325WAT     H1 4186   1.631   1.906   5.025 -2.3021  0.7609  1.1006
 1325WAT     H2 4187   1.732   1.901   5.138  1.1869 -0.3759 -1.8843
 1326WAT      O 4188   3.975   2.659   4.901 -0.0854 -0.3554 -0.6465
 1326WAT     H1 4189   4.050   2.691   4.952 -0.6426  0.0299 -0.0423
 1326WAT     H2 4190   3.910   2.636   4.967 -0.6370 -0.3235 -1.1710
 1327WAT      O 4191   0.356   5.146   2.411  0.1719  0.3082  0.1967
 1327WAT     H1 4192   0.272   5.162   2.367 -0.9780  0.2565  2.2345
 1327WAT     H2 4193   0.417   5.207   2.371 -0.7685  0.1643 -1.5301
 1328WAT      O 4194   1.859   5.165   4.816  0.3698 -0.2772  0.5815
 1328WAT     H1 4195   1.813   5.249   4.811 -0.6958 -0.5947  3.3044
 1328WAT     H2 4196   1.948   5.188   4.840  0.2309  0.0891  0.7527
 1329WAT      O 4197   1.024   4.272   4.515 -0.4110 -0.1649 -0.5270
 1329WAT     H1 4198   0.971   4.332   4.463 -0.1156  0.4511 -0.1316
 1329WAT     H2 4199   1.112   4.279   4.478 -0.3220 -0.1567 -0.3190
 1330WAT      O 4200   3.471   1.373   4.031 -0.2409  0.3477  0.2391
 1330WAT     H1 4201   3.554   1.326   4.027 -1.7477 -2.5692  0.4669
 1330WAT     H2 4202   3.428   1.338   4.109 -1.5713  2.0302  0.3167
 1331WAT      O 4203   4.829   3.987   5.052 -0.4816 -0.2454 -0.1625
 1331WAT     H1 4204   4.808   3.954   5.140  0.0365  0.9044  0.4101
 1331WAT     H2 4205   4.792   4.075   5.050  3.2649  1.5905  0.6055
 1332WAT      O 4206   2.620   3.845   2.979  0.7736 -0.2570  0.0904
 1332WAT     H1 4207   2.632   3.799   2.896  0.7325 -0.4300  0.1798
 1332WAT     H2 4208   2.700   3.896   2.990  1.4041 -1.3227  0.6334
 1333WAT      O 4209   1.052   3.723   4.562  0.1081  0.6784 -0.2994
 1333WAT     H1 4210   1.002   3.642   4.575  0.2427  0.8407  1.5913
 1333WAT     H2 4211   0.993   3.780   4.513 -1.6537  0.8638  1.8555
 1334WAT      O 4212   3.174   3.217   5.578  0.5300  0.2104 -0.4330
 1334WAT     H1 4213   3.130   3.133   5.586  2.0766 -0.4786  1.8358
 1334WAT     H2 4214   3.264   3.195   5.554  1.2824  1.0657  1.3858
 1335WAT      O 4215   2.064   0.382   1.225  0.9330 -0.5399  0.0029
 1335WAT     H1 4216   2.074   0.313   1.160  0.8117 -2.0259  1.4919
 1335WAT     H2 4217   1.972   0.380   1.249  1.1057 -0.4668  0.6932
 1336WAT      O 4218   0.422   4.312   4.642  0.1799 -0.1694  0.0934
 1336WAT     H1 4219   0.399   4.298   4.734  0.4537  0.3633  0.2445
 1336WAT     H2 4220   0.452   4.403   4.638 -0.5816  0.0612 -0.6707
 1337WAT      O 4221   3.379   0.398   4.670  0.0414 -0.6387  0.4142
 1337WAT     H1 4222   3.409   0.455   4.600  0.6492 -0.7557  0.5682
 1337WAT     H2 4223   3.341   0.457   4.735 -0.1286 -0.4927  0.1830
 1338WAT      O 4224   1.910   2.525   3.082  0.1533  0.2673  0.3899
 1338WAT     H1 4225   2.005   2.537   3.084 -0.0397  1.8277  1.5058
 1338WAT     H2 4226   1.876   2.604   3.040 -0.7117  0.2025  0.9349
 1339WAT      O 4227   3.018   1.114   3.622  0.2724  0.1750 -0.2555
 1339WAT     H1 4228   3.017   1.031   3.575 -0.2110  1.2771 -2.3046
 1339WAT     H2 4229   2.930   1.122   3.658  0.2326 -0.0425 -0.3008
 1340WAT      O 4230   2.918   0.987   5.128  0.2024 -0.0793 -0.0869
 1340WAT     H1 4231   2.871   1.015   5.207 -0.0866  0.0883 -0.3194
 1340WAT     H2 4232   2.989   1.050   5.119  1.0033 -0.8249  0.7497
 1341WAT      O 4233   3.111   3.232   4.492  0.1334  0.7601 -0.1943
 1341WAT     H1 4234   3.024   3.250   4.457 -0.0977  0.3954  0.1901
 1341WAT     H2 4235   3.108   3.264   4.582 -0.1285 -0.7194  0.3466
 1342WAT      O 4236   2.533   4.782   4.585 -0.1906  0.4814  0.0951
 1342WAT     H1 4237   2.502   4.692   4.588  0.0193  0.3798 -0.5423
 1342WAT     H2 4238   2.626   4.775   4.565  0.5188  0.7521  2.9285
 1343WAT      O 4239   1.250   4.444   1.622  0.7603 -0.5347 -0.1459
 1343WAT     H1 4240   1.305   4.496   1.680  1.0043 -2.3572  1.3404
 1343WAT     H2 4241   1.250   4.492   1.539  0.6994  1.9601  1.2084
 1344WAT      O 4242   4.796   5.620   4.332  0.6617 -0.3065  0.4742
 1344WAT     H1 4243   4.850   5.609   4.254  0.4491 -1.1853  0.4428
 1344WAT     H2 4244   4.706   5.626   4.299  0.6398  0.0942  0.6009
 1345WAT      O 4245   1.358   4.587   3.916 -0.1041 -0.5638  0.7058
 1345WAT     H1 4246   1.283   4.548   3.960 -0.1262 -2.2485 -0.7148
 1345WAT     H2 4247   1.333   4.678   3.901 -2.1121 -1.2164 -0.2176
 1346WAT      O 4248   3.450   0.371   5.275  0.9174  0.2958 -0.1278
 1346WAT     H1 4249   3.450   0.458   5.315 -0.3325 -0.0677  0.7325
 1346WAT     H2 4250   3.537   0.362   5.237  0.9650  2.0322 -0.4955
 1347WAT      O 4251   4.110   4.736   3.569  0.0577 -0.0353 -0.2739
 1347WAT     H1 4252   4.025   4.693   3.567 -0.8433  1.6025  0.4080
 1347WAT     H2 4253   4.154   4.707   3.489 -0.2081 -2.6456  0.4518
 1348WAT      O 4254   2.904   1.713   2.540 -0.4181 -0.3642 -0.1247
 1348WAT     H1 4255   2.831   1.652   2.531 -0.0065 -0.8038 -0.4969
 1348WAT     H2 4256   2.933   1.703   2.631 -0.4895 -0.5611 -0.1239
 1349WAT      O 4257   3.164   5.079   1.973 -0.2518  0.0812 -0.3239
 1349WAT     H1 4258   3.215   5.113   1.900 -0.0171 -0.1029 -0.2485
 1349WAT     H2 4259   3.083   5.046   1.933  0.3267 -0.9969 -0.6574
 1350WAT      O 4260   3.528   5.634   5.793  0.7313  0.1258 -0.2496
 1350WAT     H1 4261   3.531   5.571   5.864 -0.3109 -0.0776 -0.3685
 1350WAT     H2 4262   3.506   5.582   5.716 -2.0602  0.8211 -0.0316
 1351WAT      O 4263   2.983   0.885   2.856  0.0750 -0.3936 -0.3087
 1351WAT     H1 4264   2.935   0.856   2.778 -1.1172 -1.7623  0.8872
 1351WAT     H2 4265   2.921   0.876   2.928  0.9399  1.4479  0.7567
 1352WAT      O 4266   3.265   3.498   2.862 -0.2419 -0.7948 -0.4329
 1352WAT     H1 4267   3.228   3.578   2.826  0.6897  0.3468  1.0361
 1352WAT     H2 4268   3.348   3.487   2.817  0.0227 -0.4536 -0.0317
 1353WAT      O 4269   3.876   0.123   5.416  0.2159 -0.0441 -0.8814
 1353WAT     H1 4270   3.955   0.083   5.380  1.4878  1.0136  0.6081
 1353WAT     H2 4271   3.835   0.052   5.466  0.8622 -0.2953 -0.6904
 1354WAT      O 4272   0.411   5.049   4.316 -0.7829  0.2028 -0.1680
 1354WAT     H1 4273   0.435   5.123   4.370  0.7017  0.5899 -1.2929
 1354WAT     H2 4274   0.357   5.087   4.246 -0.8031  0.0751 -0.2226
 1355WAT      O 4275   2.776   2.856   0.641  0.5263  0.2869 -0.1219
 1355WAT     H1 4276   2.863   2.887   0.669  0.4331  1.0470 -0.6378
 1355WAT     H2 4277   2.784   2.848   0.546  0.3267 -0.6181 -0.0674
 1356WAT      O 4278   1.169   3.228   1.149  0.7896  0.3516  0.2658
 1356WAT     H1 4279   1.155   3.317   1.181 -0.2601  0.7489 -1.2290
 1356WAT     H2 4280   1.147   3.172   1.224  0.5303  1.3089  0.9253
 1357WAT      O 4281   0.895   4.987   4.772 -0.1133  0.9515 -0.5970
 1357WAT     H1 4282   0.871   4.921   4.708 -1.6270  1.0907 -0.1962
 1357WAT     H2 4283   0.865   4.952   4.856  1.6338  0.8693  0.0572
 1358WAT      O 4284   2.567   0.850   3.566 -0.0128 -0.6716  0.1130
 1358WAT     H1 4285   2.649   0.888   3.596 -0.8807  0.7022  0.8523
 1358WAT     H2 4286   2.592   0.794   3.492  1.7364 -1.3320  1.1400
 1359WAT      O 4287   2.225   5.127   1.218  0.0814  0.1665  0.0659
 1359WAT     H1 4288   2.276   5.106   1.295  0.4248  1.3869  0.1810
 1359WAT     H2 4289   2.159   5.189   1.248  0.1494  0.5716 -0.6013
 1360WAT      O 4290   4.751   5.072   3.922  0.4178  0.2420  0.1255
 1360WAT     H1 4291   4.817   5.005   3.939  0.6303  0.6294  0.8811
 1360WAT     H2 4292   4.747   5.122   4.003  1.3538  2.0824 -0.8835
 1361WAT      O 4293   3.948   1.043   1.497 -0.0310  0.2045  0.1332
 1361WAT     H1 4294   4.039   1.071   1.489 -0.1614  0.9560  1.0535
 1361WAT     H2 4295   3.932   1.041   1.591 -1.0738  0.4877 -0.0250
 1362WAT      O 4296   1.528   3.617   5.694  0.1029 -0.9336  0.0781
 1362WAT     H1 4297   1.445   3.639   5.651  0.5249 -0.7626 -0.6622
 1362WAT     H2 4298   1.506   3.543   5.751 -0.1195 -2.3065 -1.7022
 1363WAT      O 4299   3.608   4.787   3.552  0.5179 -0.1605  0.2799
 1363WAT     H1 4300   3.629   4.797   3.644 -2.2639 -0.5185  1.0217
 1363WAT     H2 4301   3.551   4.861   3.531  0.2324 -0.6675 -0.8610
 1364WAT      O 4302   2.909   3.622   4.316  0.2479  0.2075  0.1637
 1364WAT     H1 4303   2.934   3.631   4.408 -1.1544  1.4611  0.4543
 1364WAT     H2 4304   2.967   3.682   4.269 -2.2891  3.4761  0.8921
 1365WAT      O 4305   1.563   5.210   4.141 -0.4012 -0.2269  0.0090
 1365WAT     H1 4306   1.636   5.153   4.166 -1.6817 -0.1354  5.0891
 1365WAT     H2 4307   1.488   5.150   4.131 -0.4451  0.0341 -1.4782
 1366WAT      O 4308   1.280   3.995   5.508  0.5707 -0.0186 -0.0583
 1366WAT     H1 4309   1.265   3.977   5.601  2.7773  3.2271  1.0977
 1366WAT     H2 4310   1.374   3.985   5.497  0.6719  1.8351 -1.3319
 1367WAT      O 4311   4.841   0.881   3.039  0.1536 -0.3392 -0.3050
 1367WAT     H1 4312   4.873   0.923   2.959 -0.8784 -0.3844 -0.7588
 1367WAT     H2 4313   4.896   0.917   3.109  0.3670  0.5104 -0.8927
 1368WAT      O 4314   2.299   0.682   5.514 -0.0452  0.4080 -0.1832
 1368WAT     H1 4315   2.305   0.660   5.421 -3.1212 -0.9123 -0.1779
 1368WAT     H2 4316   2.257   0.768   5.515  1.6700  1.2867  0.0201
 1369WAT      O 4317   2.807   0.540   4.781  0.5862  0.3357 -0.6065
 1369WAT     H1 4318   2.826   0.584   4.698  0.6730  0.9363 -0.2696
 1369WAT     H2 4319   2.792   0.611   4.843 -0.0296 -0.1166 -0.2294
 1370WAT      O 4320   3.229   4.528   4.179  0.8039 -0.4084  0.1519
 1370WAT     H1 4321   3.282   4.571   4.246  1.1396 -0.3167 -0.1666
 1370WAT     H2 4322   3.139   4.553   4.199  0.9932  0.4316 -0.0156
 1371WAT      O 4323   3.973   3.742   3.410  0.4346  0.2079 -0.1224
 1371WAT     H1 4324   3.919   3.797   3.353 -0.4831 -2.5001 -2.0481
 1371WAT     H2 4325   4.063   3.768   3.392  0.0145  1.3986 -0.5704
 1372WAT      O 4326   0.142   4.711   2.537  0.5846 -0.1438  0.0906
 1372WAT     H1 4327   0.089   4.716   2.617 -1.1386 -0.2268 -0.9974
 1372WAT     H2 4328   0.225   4.751   2.562  0.7079 -1.6359  2.3914
 1373WAT      O 4329   3.606   3.627   2.010  0.4773  0.1051 -0.3551
 1373WAT     H1 4330   3.691   3.654   2.043  0.7265 -0.0965 -0.8285
 1373WAT     H2 4331   3.566   3.580   2.083  0.7930  0.1514 -0.1533
 1374WAT      O 4332   4.790   4.795   3.637  0.7266  0.6842 -0.1193
 1374WAT     H1 4333   4.744   4.809   3.720  1.5256  1.1018  0.2630
 1374WAT     H2 4334   4.776   4.703   3.617 -0.5108  0.8593 -0.1640
 1375WAT      O 4335   1.626   0.012   5.328  0.1361 -0.0648  0.1009
 1375WAT     H1 4336   1.585  -0.069   5.358 -0.2888 -0.8689 -2.4065
 1375WAT     H2 4337   1.609   0.075   5.398 -1.7105 -1.4932  1.0268
 1376WAT      O 4338   1.996   3.102   4.717 -0.4133 -0.0318  0.8582
 1376WAT     H1 4339   1.916   3.060   4.747 -0.7055 -1.6968 -1.9282
 1376WAT     H2 4340   2.064   3.036   4.730 -0.5743 -0.8624 -1.9871
 1377WAT      O 4341   0.667   5.208   2.260  0.4310  0.3558  0.2728
 1377WAT     H1 4342   0.603   5.262   2.213  0.1335 -0.3606 -0.1598
 1377WAT     H2 4343   0.749   5.221   2.212  0.1399 -0.3355 -0.4371
 1378WAT      O 4344   1.496   4.695   5.820  0.6804  0.0993 -0.4964
 1378WAT     H1 4345   1.548   4.766   5.783  0.3211  0.6717  0.0611
 1378WAT     H2 4346   1.409   4.732   5.830  0.4487 -0.4751 -0.3463
 1379WAT      O 4347   1.093   3.919   1.470  0.3502 -0.0574 -0.3215
 1379WAT     H1 4348   1.034   3.955   1.404 -1.0883 -0.2100  0.8397
 1379WAT     H2 4349   1.098   3.986   1.538  1.9366  0.1635 -0.6157
 1380WAT      O 4350   1.285   4.916   1.574 -0.1473  0.3316  0.4647
 1380WAT     H1 4351   1.256   5.000   1.608  0.3923  0.6920  0.0577
 1380WAT     H2 4352   1.381   4.925   1.566 -0.1896  0.0629 -0.5512
 1381WAT      O 4353   2.800   3.281   5.330  0.4628 -0.1088  0.1563
 1381WAT     H1 4354   2.851   3.324   5.399  0.4956 -0.7481  0.5411
 1381WAT     H2 4355   2.861   3.218   5.292  0.4405  0.2410 -0.4596
 1382WAT      O 4356   4.940   5.080   4.968  0.2529 -0.3329 -0.0881
 1382WAT     H1 4357   4.889   5.046   4.895 -0.9850 -1.1920  1.1393
 1382WAT     H2 4358   5.023   5.032   4.965 -0.7726 -2.2117  0.5346
 1383WAT      O 4359   2.711   3.873   5.220  0.3824 -0.1857  0.4438
 1383WAT     H1 4360   2.717   3.909   5.132  0.3784 -0.0122  0.5140
 1383WAT     H2 4361   2.734   3.780   5.210 -1.1366 -0.5438  0.0003
 1384WAT      O 4362   0.716   4.348   5.403 -0.3534  0.3858 -0.2871
 1384WAT     H1 4363   0.759   4.409   5.462 -0.7424 -0.8307  1.3100
 1384WAT     H2 4364   0.784   4.284   5.382 -0.6004  0.0475 -0.0533
 1385WAT      O 4365   2.095   5.357   4.383 -0.2675 -0.4127 -0.0917
 1385WAT     H1 4366   2.184   5.326   4.366 -0.7843 -1.3728 -1.2204
 1385WAT     H2 4367   2.042   5.277   4.387 -1.0886  0.1396  0.5677
 1386WAT      O 4368   1.797   4.119   4.939  0.5278 -0.0489 -0.1727
 1386WAT     H1 4369   1.798   4.122   4.844 -0.6684 -1.1339 -0.2345
 1386WAT     H2 4370   1.769   4.207   4.966 -1.3334 -0.3891 -0.8940
 1387WAT      O 4371   3.551   3.247   1.208 -0.3554 -0.2053  0.4846
 1387WAT     H1 4372   3.562   3.319   1.271  1.6035 -0.0669  0.0599
 1387WAT     H2 4373   3.599   3.276   1.130 -1.3613 -1.0740 -0.5071
 1388WAT      O 4374   1.708   4.928   4.460 -0.6233  0.3698  0.2191
 1388WAT     H1 4375   1.713   5.000   4.397  0.2571 -0.4829 -0.7098
 1388WAT     H2 4376   1.794   4.929   4.504 -0.5255 -0.2290  0.0520
 1389WAT      O 4377   1.555   4.933   5.403 -0.1197 -0.1681 -0.0262
 1389WAT     H1 4378   1.601   4.849   5.398 -1.0452 -0.7149  0.3957
 1389WAT     H2 4379   1.598   4.988   5.338  2.3154 -0.0612  1.5296
 1390WAT      O 4380   2.331   5.227   4.353 -0.1591  0.5893 -0.1442
 1390WAT     H1 4381   2.369   5.165   4.415 -1.3433  1.7439  1.8165
 1390WAT     H2 4382   2.396   5.233   4.283  1.0946 -0.9848  0.8151
 1391WAT      O 4383   1.839   2.031   4.460  0.3844 -0.4323 -0.3545
 1391WAT     H1 4384   1.825   2.125   4.467 -0.2127  0.0280 -4.7574
 1391WAT     H2 4385   1.751   1.994   4.459  0.5584 -0.8491 -0.3902
 1392WAT      O 4386   1.076   2.815   5.702  0.4417 -0.2916  0.3066
 1392WAT     H1 4387   1.075   2.881   5.633 -0.1430  1.8114  2.1971
 1392WAT     H2 4388   0.987   2.781   5.704 -0.0108  0.8630  1.0526
 1393WAT      O 4389   3.909   4.376   5.045 -0.1869  0.2265 -0.3714
 1393WAT     H1 4390   3.952   4.412   4.967 -1.8600  2.6802 -0.2656
 1393WAT     H2 4391   3.834   4.328   5.011 -0.5380  0.7359 -0.3316
 1394WAT      O 4392   3.857   4.922   5.322  0.2826 -0.1430 -0.1857
 1394WAT     H1 4393   3.928   4.966   5.274  1.6794  0.2952  2.1378
 1394WAT     H2 4394   3.887   4.831   5.328 -1.3948 -0.9811 -2.7448
 1395WAT      O 4395   0.681   3.101   2.439 -0.0135 -0.3270  0.5016
 1395WAT     H1 4396   0.723   3.179   2.475 -0.3574 -0.6206  1.5527
 1395WAT     H2 4397   0.590   3.109   2.465 -0.6148  0.2080 -1.5973
 1396WAT      O 4398   3.130   2.724   0.024  0.0687  0.3561 -0.1008
 1396WAT     H1 4399   3.164   2.689   0.106 -0.4525  0.9102  0.3700
 1396WAT     H2 4400   3.035   2.715   0.032 -0.0157  0.9111 -0.4058
 1397WAT      O 4401   2.162   4.591   0.575  0.6486  0.4870 -0.4430
 1397WAT     H1 4402   2.177   4.556   0.663 -0.1527  1.7836  0.2292
 1397WAT     H2 4403   2.179   4.517   0.517  0.2610 -0.6548  0.8560
 1398WAT      O 4404   1.134   4.601   3.571 -0.3430 -0.5792  0.2423
 1398WAT     H1 4405   1.197   4.534   3.546 -0.8113 -1.6318  1.7166
 1398WAT     H2 4406   1.125   4.656   3.493  0.4398 -1.9268 -0.8512
 1399WAT      O 4407   1.356   4.769   5.126 -0.0648  0.1112 -0.2536
 1399WAT     H1 4408   1.305   4.690   5.108  2.7920 -2.8076  2.9659
 1399WAT     H2 4409   1.443   4.750   5.092  0.4548  2.4390 -0.4157
 1400WAT      O 4410   2.895   4.420   0.641 -0.0298 -0.2124  0.4165
 1400WAT     H1 4411   2.951   4.497   0.644 -0.2081 -0.0557 -0.1901
 1400WAT     H2 4412   2.834   4.437   0.569 -2.9222  1.0352  2.9094
 1401WAT      O 4413   4.650   3.782   4.444  0.0597  0.4618  0.1107
 1401WAT     H1 4414   4.701   3.715   4.491  2.1627  0.7534 -1.6066
 1401WAT     H2 4415   4.611   3.735   4.371 -0.7181  0.6039  0.4254
 1402WAT      O 4416   1.725   5.602   5.087 -0.5163 -0.2299 -0.1855
 1402WAT     H1 4417   1.670   5.641   5.155 -0.3887 -0.8030  0.2580
 1402WAT     H2 4418   1.673   5.529   5.053 -0.4753 -0.1006 -0.5326
 1403WAT      O 4419   3.662   3.103   5.439  0.0595 -0.3310  0.2035
 1403WAT     H1 4420   3.744   3.151   5.427  1.6732 -2.5911  1.5670
 1403WAT     H2 4421   3.654   3.050   5.360 -0.9297  0.9222 -0.5945
 1404WAT      O 4422   3.632   5.317   4.799  0.2661  0.2096  0.3927
 1404WAT     H1 4423   3.707   5.261   4.820 -0.2871 -0.0219  1.9041
 1404WAT     H2 4424   3.613   5.362   4.882 -0.6505  1.0149 -0.2369
 1405WAT      O 4425   3.281   2.474   4.273 -0.0485 -0.1285  0.0591
 1405WAT     H1 4426   3.205   2.449   4.220 -0.4943  0.0952  0.5928
 1405WAT     H2 4427   3.319   2.548   4.226 -0.4199  0.0438  0.0319
 1406WAT      O 4428   4.831   4.601   3.342  0.7891  0.3321  0.0221
 1406WAT     H1 4429   4.751   4.567   3.303  0.1341  0.9347  0.8108
 1406WAT     H2 4430   4.902   4.559   3.293 -0.0039  0.8017 -1.5589
 1407WAT      O 4431   3.489   4.903   1.745 -0.2131  0.2313  0.4395
 1407WAT     H1 4432   3.417   4.844   1.726 -0.7827  0.6859  1.1601
 1407WAT     H2 4433   3.519   4.933   1.659 -0.4424 -0.4638  0.1104
 1408WAT      O 4434   3.228   5.340   1.786  0.7267 -0.6202  0.3462
 1408WAT     H1 4435   3.277   5.342   1.704 -0.0849  0.6895 -0.1274
 1408WAT     H2 4436   3.154   5.281   1.768  0.3535 -0.0568  0.0112
 1409WAT      O 4437   1.908   3.769   5.151 -0.2338  0.3930  0.1840
 1409WAT     H1 4438   1.900   3.675   5.169  0.5685  0.3371  0.2919
 1409WAT     H2 4439   1.962   3.774   5.072  2.3451  0.7895  1.8233
 1410WAT      O 4440   2.280   5.195   5.265 -0.3124  0.5268 -0.8225
 1410WAT     H1 4441   2.312   5.196   5.175 -1.7222  1.2604 -1.3466
 1410WAT     H2 4442   2.288   5.103   5.292  1.7213  0.5959 -1.0685
 1411WAT      O 4443   1.647   0.087   2.996 -0.0664 -0.3534  0.0138
 1411WAT     H1 4444   1.563   0.095   2.950 -0.0435 -1.8526 -0.3084
 1411WAT     H2 4445   1.632   0.019   3.062  0.6653 -0.0319  0.5229
 1412WAT      O 4446   1.472   2.214   5.688  0.0121 -0.1916  0.2358
 1412WAT     H1 4447   1.488   2.307   5.674 -0.8674  0.0191  0.5526
 1412WAT     H2 4448   1.470   2.204   5.784  1.8906 -0.8747  0.2458
 1413WAT      O 4449   2.699   4.877   4.294  0.1751  0.0154 -0.5333
 1413WAT     H1 4450   2.603   4.883   4.296  0.2018  0.2819  0.8264
 1413WAT     H2 4451   2.728   4.967   4.278  0.2141 -0.2229 -2.0192
 1414WAT      O 4452   3.943   0.627   4.917  0.0768  0.3094  0.4776
 1414WAT     H1 4453   4.020   0.672   4.952  1.2629 -1.0140 -0.3087
 1414WAT     H2 4454   3.890   0.696   4.878  2.1792  1.0087 -1.3385
 1415WAT      O 4455   2.266   5.184   2.430 -0.1125 -0.0248  0.4826
 1415WAT     H1 4456   2.361   5.189   2.436  0.0802 -3.1788  1.6811
 1415WAT     H2 4457   2.249   5.171   2.336  0.7362 -0.7175  0.4125
 1416WAT      O 4458   1.258   3.462   3.412  0.5313  0.2251 -0.1885
 1416WAT     H1 4459   1.170   3.490   3.390  0.8413  0.9806 -0.5227
 1416WAT     H2 4460   1.257   3.367   3.403 -0.1607  0.2607 -0.5089
 1417WAT      O 4461   0.826   5.439   2.561  0.0925 -0.3629  0.3451
 1417WAT     H1 4462   0.769   5.364   2.543  0.3093 -0.7890  1.3544
 1417WAT     H2 4463   0.911   5.400   2.583  0.3209  0.1971  0.4755
 1418WAT      O 4464   2.477   1.347   3.090 -0.2239 -0.1082 -0.3133
 1418WAT     H1 4465   2.571   1.363   3.082 -0.3355  0.2196 -1.0170
 1418WAT     H2 4466   2.460   1.353   3.184  0.8517 -2.4858  0.0986
 1419WAT      O 4467   0.056   0.161   3.023 -0.5451  0.3196  0.0219
 1419WAT     H1 4468  -0.010   0.110   2.975 -1.3494  1.1492  0.2128
 1419WAT     H2 4469   0.005   0.210   3.087  0.2469  1.1153  0.0541
 1420WAT      O 4470   3.081   3.714   3.425 -0.2618 -0.4932 -0.1047
 1420WAT     H1 4471   3.079   3.747   3.335 -0.3952  2.2709  0.8088
 1420WAT     H2 4472   3.166   3.669   3.432  1.2410  1.9985 -0.8314
 1421WAT      O 4473   4.858   4.526   4.082 -0.1373 -0.7340 -0.5301
 1421WAT     H1 4474   4.897   4.445   4.049 -1.8127 -1.7992 -0.0251
 1421WAT     H2 4475   4.780   4.497   4.130 -0.2350  1.1124  0.4970
 1422WAT      O 4476  -0.003   5.256   4.598 -0.0353 -0.3477 -0.1495
 1422WAT     H1 4477  -0.054   5.287   4.672  0.3709  0.8968 -0.3772
 1422WAT     H2 4478   0.079   5.225   4.636  0.7366  1.5329 -0.1582
 1423WAT      O 4479   3.123   3.820   3.172  0.0196  0.1035 -0.1123
 1423WAT     H1 4480   3.158   3.908   3.182 -0.0979  0.3508 -1.6433
 1423WAT     H2 4481   3.189   3.774   3.120  0.1184 -0.7475  0.7379
 1424WAT      O 4482   1.068   5.378   1.238 -0.0408  0.2127  0.5482
 1424WAT     H1 4483   1.132   5.450   1.234  0.1878  0.0234  0.8222
 1424WAT     H2 4484   1.100   5.322   1.308 -0.7224  0.3170  0.9453
 1425WAT      O 4485   2.781   3.200   3.836 -0.3043  0.3116  0.2160
 1425WAT     H1 4486   2.833   3.143   3.779 -1.4511 -0.4576 -0.0825
 1425WAT     H2 4487   2.727   3.251   3.776 -0.7775  0.2328  0.5662
 1426WAT      O 4488   1.108   5.063   1.332 -0.4599  0.5457  0.3425
 1426WAT     H1 4489   1.065   5.067   1.247 -1.1294 -1.8752  0.4860
 1426WAT     H2 4490   1.200   5.048   1.312 -0.5681  0.2823  0.0399
 1427WAT      O 4491   1.920   2.957   2.743  0.2696 -0.2182  0.3899
 1427WAT     H1 4492   1.925   2.908   2.661 -0.7181  1.7795 -0.9491
 1427WAT     H2 4493   1.827   2.978   2.753  0.4752  0.1851  1.6656
 1428WAT      O 4494   4.428   3.710   2.822 -0.0080 -0.7367 -0.1916
 1428WAT     H1 4495   4.408   3.622   2.854  0.9153 -1.0877 -0.5476
 1428WAT     H2 4496   4.458   3.758   2.899  0.1212 -0.9282 -0.1249
 1429WAT      O 4497   3.491   0.112   3.074 -0.5070 -0.3573 -0.7478
 1429WAT     H1 4498   3.412   0.086   3.025  0.8939 -0.7015 -2.9442
 1429WAT     H2 4499   3.557   0.047   3.050  0.2493 -0.6610  1.8196
 1430WAT      O 4500   3.910   5.199   4.556  0.3688 -0.2440 -0.4480
 1430WAT     H1 4501   3.820   5.227   4.541  0.1187 -1.3981 -1.2658
 1430WAT     H2 4502   3.953   5.211   4.472  0.7763 -0.4069 -0.2664
 1431WAT      O 4503   0.250   3.024   2.329  0.1517 -0.5418 -0.5156
 1431WAT     H1 4504   0.156   3.040   2.321  0.1559 -0.2971 -0.0706
 1431WAT     H2 4505   0.272   2.975   2.249 -0.4243 -0.9518 -0.4289
 1432WAT      O 4506   0.838   4.538   5.576  0.5363 -0.4421 -0.2776
 1432WAT     H1 4507   0.754   4.560   5.614  0.8531 -0.6331  0.5675
 1432WAT     H2 4508   0.897   4.528   5.652  0.7465 -2.6957 -0.6653
 1433WAT      O 4509   1.494   3.835   2.414 -0.2947 -0.0031 -0.7041
 1433WAT     H1 4510   1.476   3.889   2.491 -3.4149 -0.8295 -0.7319
 1433WAT     H2 4511   1.452   3.881   2.342 -2.0629 -1.8300 -0.9200
 1434WAT      O 4512   4.050   0.650   1.947 -0.0360  0.5316 -0.4991
 1434WAT     H1 4513   4.111   0.666   1.875  0.1924  1.3250 -0.1409
 1434WAT     H2 4514   4.029   0.557   1.940  1.7798  0.0550 -0.1914
 1435WAT      O 4515   2.881   4.101   3.486 -0.1144 -0.5299  0.3041
 1435WAT     H1 4516   2.825   4.025   3.502  0.5610 -1.1669 -0.2499
 1435WAT     H2 4517   2.865   4.159   3.560 -3.7246  0.7275 -1.2564
 1436WAT      O 4518   3.101   4.464   1.007  0.1814 -0.3095 -0.6497
 1436WAT     H1 4519   3.105   4.371   0.988  1.2480 -0.5833  0.6982
 1436WAT     H2 4520   3.155   4.505   0.938 -1.3472 -0.5068 -2.0152
 1437WAT      O 4521   1.893   5.178   4.226  0.8629 -0.4155  0.2156
 1437WAT     H1 4522   1.973   5.126   4.236  0.5313 -1.0460 -0.3652
 1437WAT     H2 4523   1.881   5.187   4.132  0.1720 -0.4578  0.2914
 1438WAT      O 4524   1.731   4.333   3.759  0.0176  0.1825  0.4582
 1438WAT     H1 4525   1.791   4.277   3.710 -0.2832  0.3817 -0.1484
 1438WAT     H2 4526   1.784   4.367   3.832  0.9625  1.1713 -0.6444
 1439WAT      O 4527   3.276   5.044   1.461  0.3195 -0.2737  0.1966
 1439WAT     H1 4528   3.369   5.021   1.470  0.6168  0.7891 -0.1195
 1439WAT     H2 4529   3.241   4.978   1.401  0.9630 -0.4348 -0.0061
 1440WAT      O 4530   1.870   4.988   3.569  0.4179  0.7098  0.0809
 1440WAT     H1 4531   1.786   5.003   3.612 -0.4417 -1.0113 -0.8833
 1440WAT     H2 4532   1.931   4.970   3.641 -0.6491 -0.6352  0.7012
 1441WAT      O 4533   3.362   0.446   1.318 -0.3318 -0.6002  0.1314
 1441WAT     H1 4534   3.394   0.392   1.245 -0.0326 -1.4843  0.8830
 1441WAT     H2 4535   3.307   0.512   1.278  1.6741  0.3964 -1.1430
 1442WAT      O 4536   3.532   3.763   3.275  0.0032  0.5169  0.3449
 1442WAT     H1 4537   3.479   3.792   3.350 -0.1521  0.9498  0.0715
 1442WAT     H2 4538   3.597   3.832   3.263  0.5718  0.0381  0.6102
 1443WAT      O 4539   2.255   4.867   2.140  0.0606 -0.0677 -0.2091
 1443WAT     H1 4540   2.231   4.959   2.147 -0.6539 -0.0522 -2.2240
 1443WAT     H2 4541   2.350   4.866   2.139  0.0703  0.6756 -0.4139
 1444WAT      O 4542   0.856   4.520   1.995  1.0210 -1.3652  0.7166
 1444WAT     H1 4543   0.911   4.507   1.917 -0.2044 -1.0413 -0.2286
 1444WAT     H2 4544   0.857   4.615   2.009 -1.6944 -0.9475 -1.1786
 1445WAT      O 4545   3.017   4.165   1.281 -0.9823  0.1129  0.5175
 1445WAT     H1 4546   2.985   4.127   1.362 -1.4213 -0.5343  0.0500
 1445WAT     H2 4547   2.939   4.175   1.226 -0.8513  1.5135  0.5543
 1446WAT      O 4548   4.649   1.975   4.264 -0.2746 -0.2345  0.1817
 1446WAT     H1 4549   4.569   1.988   4.213  0.1625  1.9562 -0.0460
 1446WAT     H2 4550   4.720   1.991   4.202  0.2984  0.0116  0.8916
 1447WAT      O 4551   4.226   1.550   4.583 -0.6504 -0.0875 -0.9437
 1447WAT     H1 4552   4.233   1.547   4.487 -0.0654  1.1374 -0.9688
 1447WAT     H2 4553   4.313   1.526   4.614 -0.3948  0.9585 -0.7898
 1448WAT      O 4554   3.489   3.445   2.192  0.5210 -0.6873  0.2523
 1448WAT     H1 4555   3.464   3.391   2.117 -0.8062  2.9418 -2.1736
 1448WAT     H2 4556   3.414   3.442   2.250 -0.6641  0.5286 -1.1444
 1449WAT      O 4557   3.841   3.813   3.848  0.7429 -0.0685  0.2519
 1449WAT     H1 4558   3.924   3.814   3.801 -0.3189  1.0843 -1.7703
 1449WAT     H2 4559   3.835   3.900   3.888 -0.3668  0.7323 -1.4732
 1450WAT      O 4560   3.591   2.584   4.796 -0.5347 -0.1049  0.1592
 1450WAT     H1 4561   3.558   2.663   4.837  0.4369  0.4271 -0.0501
 1450WAT     H2 4562   3.584   2.600   4.702  1.1380  0.4257  0.0815
 1451WAT      O 4563   1.088   3.225   4.518  0.1715 -0.4393  0.4925
 1451WAT     H1 4564   1.019   3.259   4.460  0.6450 -1.3025 -0.6123
 1451WAT     H2 4565   1.068   3.263   4.603 -0.5845  0.8344 -0.2147
 1452WAT      O 4566   1.658   3.934   2.968 -0.2243 -0.2137  0.7449
 1452WAT     H1 4567   1.611   3.910   3.048 -0.0102 -0.3194  0.8397
 1452WAT     H2 4568   1.702   4.016   2.989  0.0389 -0.3734  0.8182
 1453WAT      O 4569   1.959   4.115   3.708 -0.0107 -0.5989  0.6334
 1453WAT     H1 4570   1.991   4.027   3.688 -0.1552 -0.6745  0.7384
 1453WAT     H2 4571   2.030   4.173   3.679 -0.1685 -0.7142  0.0126
 1454WAT      O 4572   3.662   3.483   4.153  0.0137  0.3947 -0.1965
 1454WAT     H1 4573   3.675   3.551   4.088  1.2248 -0.1221 -0.5304
 1454WAT     H2 4574   3.620   3.411   4.105  0.2758  0.2774 -0.2546
 1455WAT      O 4575   3.233   3.671   4.680 -0.2570 -0.2365  0.0371
 1455WAT     H1 4576   3.228   3.721   4.761 -2.6189 -0.1505 -0.0884
 1455WAT     H2 4577   3.253   3.582   4.708  0.4288  0.0788  0.5733
 1456WAT      O 4578   1.981   4.895   3.988  0.0090 -0.0743 -0.0193
 1456WAT     H1 4579   1.960   4.809   3.953  0.8023 -0.6546  0.9064
 1456WAT     H2 4580   1.909   4.951   3.958 -1.4071 -1.4155  0.7449
 1457WAT      O 4581   0.496   3.340   2.337  0.0466 -0.3989 -0.1780
 1457WAT     H1 4582   0.506   3.431   2.366 -1.3963  0.1577 -1.3151
 1457WAT     H2 4583   0.575   3.322   2.288  0.1917  0.3702 -0.2439
 1458WAT      O 4584   3.745   5.196   3.369  0.3502 -0.0457 -0.4503
 1458WAT     H1 4585   3.830   5.184   3.327  1.0700  2.0514  0.2849
 1458WAT     H2 4586   3.682   5.188   3.298  1.3557  0.6951 -1.4660
 1459WAT      O 4587   0.760   1.271   4.538 -0.0563 -0.1532  0.0774
 1459WAT     H1 4588   0.674   1.227   4.541  0.5482 -1.4548 -0.6993
 1459WAT     H2 4589   0.821   1.205   4.572  0.5796  0.9670  1.1857
 1460WAT      O 4590   1.053   0.543   2.503 -0.1197 -0.4967  0.1095
 1460WAT     H1 4591   1.119   0.597   2.460 -0.8679 -2.2494 -3.5672
 1460WAT     H2 4592   1.101   0.497   2.572  1.4919  1.3377  0.3000
 1461WAT      O 4593   2.823   5.226   3.652 -0.3078  0.2919  0.2119
 1461WAT     H1 4594   2.867   5.293   3.600  1.8025 -0.5687  0.7503
 1461WAT     H2 4595   2.761   5.275   3.706  0.3795  1.6808 -0.1968
 1462WAT      O 4596   4.027   0.382   4.790  0.1377  0.5286 -0.1107
 1462WAT     H1 4597   4.113   0.411   4.759  0.4173 -0.0460  0.1170
 1462WAT     H2 4598   4.002   0.449   4.854 -0.3389  1.5914 -1.3619
 1463WAT      O 4599   2.603   0.615   5.448 -0.4785  0.1646 -0.4184
 1463WAT     H1 4600   2.537   0.664   5.398  0.4406 -0.8058 -2.7570
 1463WAT     H2 4601   2.644   0.681   5.504  0.1578  2.0032 -2.8429
 1464WAT      O 4602   1.414   1.942   1.383 -0.3813 -0.0734  0.1418
 1464WAT     H1 4603   1.408   1.852   1.353  2.7906 -0.0013 -1.1371
 1464WAT     H2 4604   1.388   1.994   1.307  0.5730  0.0793 -0.0881
 1465WAT      O 4605   2.011   4.671   1.696 -0.4769  0.2803 -0.2471
 1465WAT     H1 4606   2.065   4.639   1.623  0.0365  0.1322  0.1887
 1465WAT     H2 4607   2.028   4.766   1.698  0.9111  0.0355  0.7903
 1466WAT      O 4608   1.860   4.259   3.457  0.7291 -0.1872  0.5994
 1466WAT     H1 4609   1.920   4.228   3.389  1.0849  0.5095  0.5860
 1466WAT     H2 4610   1.818   4.336   3.418  0.4531 -0.1693  0.9297
 1467WAT      O 4611   4.273   5.012   4.748  0.2493 -0.1123 -0.4211
 1467WAT     H1 4612   4.313   4.935   4.789 -0.4346 -0.2932 -0.0689
 1467WAT     H2 4613   4.302   5.085   4.803  0.2437 -0.2177 -0.2756
 1468WAT      O 4614   3.457   4.775   3.912  0.2798 -0.3314  0.1238
 1468WAT     H1 4615   3.541   4.773   3.866  1.9251  0.6443  2.8396
 1468WAT     H2 4616   3.414   4.854   3.878 -0.5460 -1.8458 -2.6961
 1469WAT      O 4617   2.818   3.589   2.294 -0.0608 -0.6291  0.1170
 1469WAT     H1 4618   2.782   3.673   2.268 -0.0690 -1.0647 -1.3880
 1469WAT     H2 4619   2.759   3.557   2.362  0.2081  0.7639  1.0347
 1470WAT      O 4620   4.072   3.515   3.721  0.1077  0.0488 -0.5843
 1470WAT     H1 4621   4.115   3.447   3.669 -0.4651  0.7658 -2.0193
 1470WAT     H2 4622   3.984   3.481   3.736  0.3220 -0.2340  0.1055
 1471WAT      O 4623   4.776   4.484   2.302  0.2300 -0.5277  0.3618
 1471WAT     H1 4624   4.786   4.560   2.244  1.2386  1.0534  2.4247
 1471WAT     H2 4625   4.687   4.491   2.336  0.2674 -0.3355  0.4247
 1472WAT      O 4626   3.719   4.029   2.633 -0.4789  0.0364  0.3047
 1472WAT     H1 4627   3.664   3.990   2.565 -0.4433 -1.6242  1.1667
 1472WAT     H2 4628   3.806   4.032   2.594 -0.4557 -0.9252  0.2661
 1473WAT      O 4629   2.332   4.549   4.025 -0.1875 -0.4068 -0.1647
 1473WAT     H1 4630   2.299   4.626   4.072  1.5065  0.4086 -0.2338
 1473WAT     H2 4631   2.348   4.484   4.093 -1.3656 -0.6073 -0.0722
 1474WAT      O 4632   2.593   3.271   4.067  0.7842 -0.0520  0.1787
 1474WAT     H1 4633   2.677   3.265   4.021  0.8647  1.4357  0.0856
 1474WAT     H2 4634   2.542   3.332   4.015 -0.4687 -1.1085  0.1143
 1475WAT      O 4635   2.345   2.694   2.621  0.1234  0.1510 -0.1532
 1475WAT     H1 4636   2.295   2.771   2.649 -0.4249 -0.6905  1.2756
 1475WAT     H2 4637   2.323   2.684   2.529  0.1130  1.6247 -0.3408
 1476WAT      O 4638   1.684   3.296   1.324  0.0585 -0.2102  0.1168
 1476WAT     H1 4639   1.748   3.257   1.264 -0.2616  0.5864 -0.7675
 1476WAT     H2 4640   1.613   3.326   1.267  0.2040  1.4633  0.7609
 1477WAT      O 4641   2.519   3.921   2.481  0.4148 -0.1677 -0.0778
 1477WAT     H1 4642   2.523   4.011   2.513  0.8822  0.0328 -0.6881
 1477WAT     H2 4643   2.472   3.873   2.550 -0.4187  0.6723 -0.0440
 1478WAT      O 4644   2.364   3.721   3.815 -0.4969  0.2133  0.3156
 1478WAT     H1 4645   2.447   3.766   3.798 -0.3635  0.9592  2.6186
 1478WAT     H2 4646   2.349   3.669   3.736 -0.0082  3.2538 -1.9777
 1479WAT      O 4647   1.671   3.101   4.655 -0.0662 -0.2475 -0.3453
 1479WAT     H1 4648   1.690   3.191   4.628  0.7763 -0.9123 -2.0714
 1479WAT     H2 4649   1.681   3.102   4.750 -0.3919  1.5494 -0.2997
 1480WAT      O 4650   2.766   4.773   1.937  0.0179 -0.1840 -0.1758
 1480WAT     H1 4651   2.818   4.836   1.986  0.6656 -0.0902 -0.9621
 1480WAT     H2 4652   2.700   4.743   1.999 -0.6920  1.7158  0.0482
 1481WAT      O 4653   3.440   1.435   3.567  0.0959 -0.4615  0.4687
 1481WAT     H1 4654   3.381   1.361   3.560  0.4033 -0.6183 -0.6874
 1481WAT     H2 4655   3.528   1.397   3.555  0.2655  0.0566  0.0167
 1482WAT      O 4656   1.769   0.730   3.005 -0.0561  0.8508  0.5395
 1482WAT     H1 4657   1.749   0.662   2.940  0.0177  1.8221 -0.5278
 1482WAT     H2 4658   1.688   0.780   3.013 -0.1073  0.6544  1.3177
 1483WAT      O 4659   3.836   5.262   3.923  0.4678  0.7617 -0.9019
 1483WAT     H1 4660   3.749   5.221   3.916  0.3039  1.0879 -0.7899
 1483WAT     H2 4661   3.882   5.209   3.988  0.8433 -0.2631 -1.9699
 1484WAT      O 4662   4.604   0.303   3.022 -0.2556  0.1095  0.0659
 1484WAT     H1 4663   4.639   0.306   2.933  0.6103 -0.6399  0.3611
 1484WAT     H2 4664   4.518   0.263   3.012  0.4041 -1.2967 -0.3041
 1485WAT      O 4665   0.056   4.317   2.038 -0.1331 -0.2327 -0.2055
 1485WAT     H1 4666   0.112   4.245   2.009  0.5381 -0.3407  1.2725
 1485WAT     H2 4667  -0.015   4.274   2.087 -0.5996  0.0220 -0.6412
 1486WAT      O 4668   2.797   5.589   5.009  0.0993  0.0240  0.0106
 1486WAT     H1 4669   2.769   5.662   4.954  1.2838  1.3611  1.1188
 1486WAT     H2 4670   2.870   5.624   5.060  0.3757 -1.7942  0.9388
 1487WAT      O 4671   3.083   2.284   2.246 -0.0181 -0.4689 -0.2554
 1487WAT     H1 4672   3.130   2.305   2.326 -1.1427  0.1366  0.2627
 1487WAT     H2 4673   3.144   2.230   2.196  0.7951 -0.6304  0.8823
 1488WAT      O 4674   2.926   5.414   1.005  0.2431  0.0350  0.0288
 1488WAT     H1 4675   2.967   5.371   0.930 -0.4261 -0.1223 -0.2601
 1488WAT     H2 4676   2.856   5.468   0.967 -0.2951 -0.2725  0.5536
 1489WAT      O 4677   2.221   2.217   1.238 -0.4723 -0.3412 -0.1036
 1489WAT     H1 4678   2.297   2.159   1.241 -0.2288 -0.0544 -0.5291
 1489WAT     H2 4679   2.235   2.269   1.159  0.2114  1.5003  1.1497
 1490WAT      O 4680   4.930   1.426   2.846 -0.0685  0.2847  0.0769
 1490WAT     H1 4681   4.992   1.411   2.775  0.1740 -0.1988  0.3835
 1490WAT     H2 4682   4.961   1.505   2.889 -0.4562  0.8178 -0.6053
 1491WAT      O 4683   4.422   3.442   2.897  0.3813  0.0420 -0.3804
 1491WAT     H1 4684   4.419   3.409   2.987  0.2248  0.9564 -0.0457
 1491WAT     H2 4685   4.507   3.414   2.865 -0.0531 -1.3723 -0.3805
 1492WAT      O 4686   2.795   4.187   4.724  0.3404  0.1362 -0.4529
 1492WAT     H1 4687   2.745   4.208   4.646  0.4347 -0.6164 -0.7251
 1492WAT     H2 4688   2.874   4.240   4.718  0.6275 -0.3623 -1.1750
 1493WAT      O 4689   1.566   4.519   4.133 -0.0962  0.2729 -0.4679
 1493WAT     H1 4690   1.545   4.601   4.177  0.0577  0.1342 -0.1335
 1493WAT     H2 4691   1.498   4.509   4.067 -0.4362  0.3851 -0.1330
 1494WAT      O 4692   1.797   0.201   3.673  0.2602 -0.1426  0.0537
 1494WAT     H1 4693   1.704   0.200   3.697 -0.4768 -1.3593 -2.4582
 1494WAT     H2 4694   1.797   0.207   3.578  2.7778 -0.4053 -0.0294
 1495WAT      O 4695   3.802   4.193   0.446 -0.4991  0.1775  0.1824
 1495WAT     H1 4696   3.887   4.235   0.452 -1.0623  1.6124 -1.1570
 1495WAT     H2 4697   3.803   4.148   0.361 -0.0046 -2.4263  1.4683
 1496WAT      O 4698   3.620   5.408   1.611 -0.0640 -0.3998  0.1711
 1496WAT     H1 4699   3.590   5.436   1.697 -2.5770  0.1354 -0.7840
 1496WAT     H2 4700   3.559   5.337   1.586  1.1779 -1.1797 -0.7938
 1497WAT      O 4701   4.715   5.592   2.452 -0.1095  0.0787  0.0053
 1497WAT     H1 4702   4.793   5.541   2.475  0.4377  1.7028  2.0721
 1497WAT     H2 4703   4.750   5.675   2.421 -0.8850  1.7089  3.0996
 1498WAT      O 4704   4.246   4.744   4.112 -0.5232  0.4502 -0.4778
 1498WAT     H1 4705   4.211   4.705   4.032  1.0987 -0.5991 -0.7379
 1498WAT     H2 4706   4.210   4.692   4.183 -0.0430 -0.1954 -0.6993
 1499WAT      O 4707   0.566   3.925   3.033  0.4075 -0.3423 -0.4212
 1499WAT     H1 4708   0.497   3.988   3.053  0.0887 -0.9305  0.4247
 1499WAT     H2 4709   0.641   3.979   3.007 -0.0033  0.3614 -0.1860
 1500WAT      O 4710   2.893   4.590   2.237 -0.5523 -0.1972 -0.3055
 1500WAT     H1 4711   2.807   4.556   2.263 -1.1023  1.6322  0.3947
 1500WAT     H2 4712   2.876   4.678   2.206  0.8683 -0.4253 -1.8610
 1501WAT      O 4713   3.386   3.902   3.487 -0.5323 -0.3777  0.1692
 1501WAT     H1 4714   3.406   3.881   3.578 -0.8404 -2.3142 -0.1659
 1501WAT     H2 4715   3.304   3.951   3.490  0.0499  0.5765  0.9906
 1502WAT      O 4716   3.678   0.650   1.903  0.5426  0.3438 -0.0206
 1502WAT     H1 4717   3.667   0.642   1.808 -0.3354  1.2650 -0.0131
 1502WAT     H2 4718   3.604   0.602   1.940  0.4319  0.6597  0.1761
 1503WAT      O 4719   1.918   4.103   1.163 -0.0210  0.0379  0.1611
 1503WAT     H1 4720   1.967   4.079   1.085  0.2063 -1.3279  0.6969
 1503WAT     H2 4721   1.894   4.195   1.150  1.4862  0.3227 -0.7289
 1504WAT      O 4722   0.967   0.977   4.273  0.5169 -0.2829 -0.4343
 1504WAT     H1 4723   0.979   1.050   4.334 -0.5067 -0.5165  0.0639
 1504WAT     H2 4724   1.027   0.910   4.306 -0.8674 -0.8571  1.0872
 1505WAT      O 4725   0.119   0.029   4.589  0.5736  0.3257  0.0119
 1505WAT     H1 4726   0.107  -0.030   4.663 -1.4250 -0.0834 -0.5921
 1505WAT     H2 4727   0.203   0.001   4.551  1.0703 -0.1981  1.4215
 1506WAT      O 4728   2.506   2.722   5.536 -0.1954  0.3244  0.3125
 1506WAT     H1 4729   2.502   2.813   5.563  0.2110 -0.1509  2.1337
 1506WAT     H2 4730   2.416   2.690   5.544 -0.3859  0.6259 -0.5855
 1507WAT      O 4731   2.212   4.812   2.688 -0.3986 -0.1186  0.4987
 1507WAT     H1 4732   2.297   4.811   2.731  1.0279 -0.5640 -2.0755
 1507WAT     H2 4733   2.186   4.904   2.687 -0.1844 -0.0322  1.7097
 1508WAT      O 4734   1.209   4.593   5.293 -0.1297  0.1074 -0.7046
 1508WAT     H1 4735   1.142   4.542   5.338  0.6127  0.4609  0.8783
 1508WAT     H2 4736   1.163   4.671   5.263 -0.4669  0.3006  0.2732
 1509WAT      O 4737   1.983   3.296   2.652 -0.3716 -0.6405  0.0275
 1509WAT     H1 4738   2.062   3.256   2.687  0.6639 -0.0005 -1.4893
 1509WAT     H2 4739   1.930   3.317   2.729  0.8390 -1.2649  1.0496
 1510WAT      O 4740   3.051   0.092   5.009 -0.6443 -0.1304  0.0782
 1510WAT     H1 4741   3.048   0.073   4.915 -1.3156 -0.6969  0.1978
 1510WAT     H2 4742   3.122   0.155   5.019 -1.1946  0.6830 -0.9371
 1511WAT      O 4743   3.650   2.800   3.843 -0.4332 -0.6407 -1.0320
 1511WAT     H1 4744   3.594   2.773   3.915 -0.0641  0.8190 -0.1552
 1511WAT     H2 4745   3.730   2.748   3.854  0.1551  0.5043  0.4440
 1512WAT      O 4746   1.588   5.624   4.673  0.3635  0.6295 -0.2199
 1512WAT     H1 4747   1.642   5.703   4.679  0.9664  0.2739 -0.7772
 1512WAT     H2 4748   1.511   5.643   4.725 -0.1369  2.1209 -1.4361
 1513WAT      O 4749   4.556   3.809   3.339  0.1808 -0.8953  0.1683
 1513WAT     H1 4750   4.648   3.813   3.364  0.4205  0.1458 -0.7874
 1513WAT     H2 4751   4.510   3.854   3.410  0.4536 -1.0433  0.4414
 1514WAT      O 4752   1.092   4.250   4.182 -0.0566  0.0993 -0.0307
 1514WAT     H1 4753   1.147   4.277   4.255  0.3209 -3.0732  1.0004
 1514WAT     H2 4754   1.153   4.230   4.112 -0.3270  1.6962 -0.7659
 1515WAT      O 4755   1.453   1.973   2.122  0.0868 -0.6215 -0.3082
 1515WAT     H1 4756   1.485   2.017   2.201 -0.6450  0.3440 -0.5393
 1515WAT     H2 4757   1.449   1.880   2.146 -0.3036 -0.3178  0.8536
 1516WAT      O 4758   0.434   3.846   1.397  0.3510  1.1172  0.0970
 1516WAT     H1 4759   0.390   3.842   1.312 -3.1664 -0.5251  1.8116
 1516WAT     H2 4760   0.392   3.920   1.441  0.9537  0.9337  0.9909
 1517WAT      O 4761   1.613   4.503   5.136  0.5069  0.1417 -0.7430
 1517WAT     H1 4762   1.615   4.576   5.074  0.3540  0.1486 -0.7413
 1517WAT     H2 4763   1.671   4.530   5.207  3.4000 -1.2474 -2.4026
 1518WAT      O 4764   4.244   4.279   5.266 -0.4119 -0.1010  0.3649
 1518WAT     H1 4765   4.333   4.297   5.297  0.4159 -2.5303 -0.3839
 1518WAT     H2 4766   4.251   4.281   5.171 -1.1592 -0.3547  0.3034
 1519WAT      O 4767   2.165   5.636   4.893 -0.0853 -0.3953 -0.1646
 1519WAT     H1 4768   2.081   5.652   4.936 -0.9078 -0.1457 -1.7951
 1519WAT     H2 4769   2.207   5.568   4.946 -1.7328 -1.1988  0.1649
 1520WAT      O 4770   2.781   5.129   4.168  0.0600 -0.3402  0.6324
 1520WAT     H1 4771   2.792   5.124   4.073 -0.6243 -0.0937  0.5360
 1520WAT     H2 4772   2.853   5.184   4.197  0.3106 -0.4656  0.2642
 1521WAT      O 4773   1.080   2.984   2.468 -0.4701 -0.2989  0.4180
 1521WAT     H1 4774   1.092   3.076   2.445  0.5896 -0.1275  1.5522
 1521WAT     H2 4775   1.131   2.973   2.548  3.8769 -3.0968 -2.3259
 1522WAT      O 4776   0.348   0.452   2.167  0.5138  0.0772  0.2232
 1522WAT     H1 4777   0.319   0.363   2.145 -1.1411  1.2261 -2.8898
 1522WAT     H2 4778   0.296   0.476   2.243 -0.4989 -0.9229 -0.1227
 1523WAT      O 4779   3.227   5.322   2.617 -0.0143 -0.2618  0.0822
 1523WAT     H1 4780   3.273   5.301   2.698  0.3998  0.5718  0.0798
 1523WAT     H2 4781   3.271   5.270   2.549 -0.8368 -1.5230  0.4926
 1524WAT      O 4782   0.817   2.407   3.755 -0.6397  0.3079 -0.1505
 1524WAT     H1 4783   0.887   2.435   3.695 -0.6064 -1.4053 -0.9759
 1524WAT     H2 4784   0.830   2.460   3.833  1.0070  0.7080 -0.6481
 1525WAT      O 4785   2.090   4.725   4.904 -0.0308  0.2534  0.4191
 1525WAT     H1 4786   2.146   4.790   4.862 -0.6218 -0.3702 -1.4545
 1525WAT     H2 4787   2.011   4.723   4.850 -0.5929 -1.0390  1.2386
 1526WAT      O 4788   2.390   0.987   1.213  0.0495  0.2622  0.3855
 1526WAT     H1 4789   2.337   1.015   1.287  0.4133 -0.9722  1.1426
 1526WAT     H2 4790   2.417   1.068   1.170 -1.7704  0.9292  0.4517
 1527WAT      O 4791   1.855   1.447   3.056  0.3468  0.1105 -0.1203
 1527WAT     H1 4792   1.931   1.390   3.067  0.0741 -0.4347 -0.9878
 1527WAT     H2 4793   1.793   1.418   3.123  0.5255 -0.0719 -0.0339
 1528WAT      O 4794   1.390   0.110   4.776 -0.8379  0.0815  0.5174
 1528WAT     H1 4795   1.368   0.142   4.864 -2.8544  2.5291 -0.7211
 1528WAT     H2 4796   1.307   0.110   4.729 -0.1004 -2.7025 -1.0356
 1529WAT      O 4797   3.428   3.192   3.020  0.3874 -0.0635 -0.2411
 1529WAT     H1 4798   3.333   3.200   3.024  0.4448  0.9798 -0.7457
 1529WAT     H2 4799   3.455   3.180   3.111 -0.1813  0.1926 -0.0355
 1530WAT      O 4800   0.075   3.937   4.896 -0.3121  0.3547  0.0642
 1530WAT     H1 4801   0.021   3.956   4.973 -0.2336 -1.2626  0.5649
 1530WAT     H2 4802   0.025   3.871   4.848  0.0364  0.7347 -0.8239
 1531WAT      O 4803   0.494   4.925   2.139  1.3401  0.3131  0.1781
 1531WAT     H1 4804   0.478   4.937   2.045 -1.7864 -0.2429  0.5130
 1531WAT     H2 4805   0.476   5.011   2.177  2.5957  0.5352  0.3080
 1532WAT      O 4806   1.685   4.728   3.069 -0.0281 -0.6691  0.0417
 1532WAT     H1 4807   1.676   4.715   3.163 -0.2443  2.7626  0.6144
 1532WAT     H2 4808   1.770   4.689   3.047  0.8590  0.0269  2.0428
 1533WAT      O 4809   1.862   4.447   3.050  0.6978 -0.4847 -0.1436
 1533WAT     H1 4810   1.866   4.504   2.973 -1.2154  1.2074  0.9011
 1533WAT     H2 4811   1.951   4.413   3.059  1.6429  1.4141 -1.5462
 1534WAT      O 4812   0.880   5.289   1.842 -0.3097 -0.3139  0.0186
 1534WAT     H1 4813   0.805   5.319   1.791 -1.3169 -2.0067  0.4415
 1534WAT     H2 4814   0.953   5.345   1.813 -1.7323  1.4692 -0.2875
 1535WAT      O 4815   3.771   4.103   0.180  0.1149 -0.0846 -0.1269
 1535WAT     H1 4816   3.820   4.050   0.117 -0.6032  1.6496 -2.2967
 1535WAT     H2 4817   3.689   4.124   0.135 -0.5435  1.0472  1.5006
 1536WAT      O 4818   3.191   4.351   3.038 -0.3414 -0.0466  0.5225
 1536WAT     H1 4819   3.262   4.348   3.103  0.0498  0.8582  0.1588
 1536WAT     H2 4820   3.130   4.283   3.067 -0.5947  0.8802  2.3308
 1537WAT      O 4821   0.880   0.212   3.541 -0.1262  0.7315  0.4460
 1537WAT     H1 4822   0.952   0.230   3.602 -0.8587  4.1876  0.5141
 1537WAT     H2 4823   0.828   0.144   3.584  2.5359 -1.2235  0.7953
 1538WAT      O 4824   3.051   0.072   5.383  0.3424 -0.0841 -0.1406
 1538WAT     H1 4825   3.141   0.084   5.354  0.7862 -1.8288  0.4179
 1538WAT     H2 4826   3.012   0.160   5.377  1.2010  0.2019 -3.2042
 1539WAT      O 4827   2.686   4.611   1.518  0.0556  0.6299 -0.3829
 1539WAT     H1 4828   2.666   4.521   1.492  0.2611  0.2799  0.6271
 1539WAT     H2 4829   2.761   4.636   1.464 -0.7822  0.6548 -1.5720
 1540WAT      O 4830   4.495   4.774   2.642 -0.0666 -0.5789 -0.3024
 1540WAT     H1 4831   4.402   4.770   2.620 -0.1816 -0.2661  0.1082
 1540WAT     H2 4832   4.524   4.682   2.642 -0.7420 -0.8167  1.0862
 1541WAT      O 4833   1.681   5.232   5.416  0.1531  0.1208 -0.6714
 1541WAT     H1 4834   1.619   5.188   5.475 -0.1972  1.0330 -0.3513
 1541WAT     H2 4835   1.716   5.304   5.467  0.1485  0.6853 -1.4492
 1542WAT      O 4836   1.181   0.088   2.427  0.2183  0.8298  0.3832
 1542WAT     H1 4837   1.117   0.044   2.483  0.5733 -1.4966 -0.9124
 1542WAT     H2 4838   1.132   0.114   2.349  0.4941  0.5830  0.1239
 1543WAT      O 4839   3.378   3.748   3.039  0.7548 -0.0046 -0.4113
 1543WAT     H1 4840   3.422   3.827   3.006  2.1026 -0.7299 -0.4453
 1543WAT     H2 4841   3.434   3.718   3.110 -0.4268 -0.2334  0.4479
 1544WAT      O 4842   1.933   2.308   3.379  0.5492  0.8470 -0.1039
 1544WAT     H1 4843   1.986   2.274   3.307  0.6180  1.1191 -0.1827
 1544WAT     H2 4844   1.925   2.401   3.361 -1.5330  0.5306 -1.1351
 1545WAT      O 4845   1.950   5.021   5.710  0.2488 -0.5023 -0.4808
 1545WAT     H1 4846   1.989   5.109   5.718 -1.6859  0.5150 -1.4474
 1545WAT     H2 4847   2.016   4.970   5.663  1.9564  0.0183  1.2132
 1546WAT      O 4848   4.008   4.885   2.829 -0.4996  0.1323 -0.0323
 1546WAT     H1 4849   4.046   4.956   2.777 -0.4299  0.1762  0.0773
 1546WAT     H2 4850   3.953   4.929   2.894 -0.7309  0.0686 -0.1841
 1547WAT      O 4851   1.869   4.567   2.214  0.7480  0.4536 -0.3499
 1547WAT     H1 4852   1.945   4.515   2.189  0.6026 -0.7437  1.5618
 1547WAT     H2 4853   1.856   4.627   2.140  2.1476 -0.8471 -1.7175
 1548WAT      O 4854   3.596   5.474   4.007 -0.4473 -0.5878  0.0889
 1548WAT     H1 4855   3.557   5.488   3.921 -0.7524 -0.3462  0.2675
 1548WAT     H2 4856   3.573   5.384   4.029 -2.7686  0.2062  1.1456
 1549WAT      O 4857   0.898   4.403   1.409  0.0680 -0.3015 -0.2133
 1549WAT     H1 4858   0.887   4.492   1.444 -1.0962 -1.0977  1.6429
 1549WAT     H2 4859   0.931   4.416   1.320 -0.8494  2.0022 -0.2983
 1550WAT      O 4860   1.001   4.147   1.235 -0.5902 -0.3420 -0.4300
 1550WAT     H1 4861   1.043   4.187   1.159  0.4117  0.8952  0.7219
 1550WAT     H2 4862   0.968   4.221   1.286 -1.4451 -1.1521  0.2343
 1551WAT      O 4863   1.521   2.167   3.238  0.0047  0.1769 -0.2427
 1551WAT     H1 4864   1.577   2.168   3.316  0.4149 -1.2229 -0.4868
 1551WAT     H2 4865   1.509   2.259   3.216 -0.7062  0.6514  1.8796
 1552WAT      O 4866   3.264   4.895   3.467  0.3267  0.2289  0.0901
 1552WAT     H1 4867   3.337   4.956   3.479 -1.1443  3.0256 -3.3052
 1552WAT     H2 4868   3.196   4.927   3.527  0.1238  0.9864 -0.5239
 1553WAT      O 4869   4.301   4.260   2.525  0.2254 -0.2337  0.1820
 1553WAT     H1 4870   4.313   4.322   2.453 -1.0712 -0.0607  0.0888
 1553WAT     H2 4871   4.210   4.232   2.517  0.4989 -1.3808  0.8377
 1554WAT      O 4872   3.598   2.159   2.030  0.5243 -0.4461 -0.2921
 1554WAT     H1 4873   3.546   2.079   2.028 -1.2389  0.6419 -1.6910
 1554WAT     H2 4874   3.670   2.144   1.969  1.1800 -1.5161  0.7063
 1555WAT      O 4875   2.059   4.910   0.230  0.2795  0.5289 -0.3704
 1555WAT     H1 4876   2.098   4.847   0.168  0.6563  0.9532 -0.5677
 1555WAT     H2 4877   2.059   4.864   0.314  0.4962  0.2416 -0.5269
 1556WAT      O 4878   1.100   3.970   2.612 -0.1955 -0.1651 -0.1497
 1556WAT     H1 4879   1.130   3.893   2.660 -0.1268  0.4895  0.8851
 1556WAT     H2 4880   1.006   3.973   2.628  0.0276  0.8017  1.0687
 1557WAT      O 4881   4.771   0.085   3.961 -0.6358 -0.0841 -0.2692
 1557WAT     H1 4882   4.859   0.069   3.928  0.2314  0.5163  1.6297
 1557WAT     H2 4883   4.754   0.177   3.941 -0.5996 -0.0436 -0.1117
 1558WAT      O 4884   0.234   4.617   4.601 -0.0171  0.1951 -0.6434
 1558WAT     H1 4885   0.204   4.531   4.631 -0.7319 -0.0948 -2.0747
 1558WAT     H2 4886   0.329   4.612   4.603  0.0978  0.7941  3.0777
 1559WAT      O 4887   2.434   4.192   1.310  0.4164  0.2610  0.0187
 1559WAT     H1 4888   2.469   4.116   1.357  1.5701  0.2612 -0.7925
 1559WAT     H2 4889   2.377   4.235   1.373 -1.6623 -2.2018  0.0029
 1560WAT      O 4890   3.230   1.419   3.083 -0.1967  0.3826 -0.2992
 1560WAT     H1 4891   3.283   1.413   3.004  1.1623 -2.9971  0.6688
 1560WAT     H2 4892   3.264   1.350   3.140 -1.4830  2.2363  3.0415
 1561WAT      O 4893   0.717   5.278   3.383  0.0269  0.2584  0.2770
 1561WAT     H1 4894   0.638   5.243   3.425  0.1484 -0.9141 -0.4525
 1561WAT     H2 4895   0.714   5.372   3.403 -0.7905  0.0085  1.4843
 1562WAT      O 4896   4.943   2.993   2.276  0.2917  0.5340  0.3850
 1562WAT     H1 4897   4.899   3.056   2.332  2.0207  1.2767  0.9793
 1562WAT     H2 4898   4.881   2.976   2.205  0.1780  3.7967 -0.4597
 1563WAT      O 4899   3.792   5.441   5.301  0.0907 -0.5559  0.6103
 1563WAT     H1 4900   3.740   5.502   5.248 -0.5494 -0.4024  1.3859
 1563WAT     H2 4901   3.777   5.469   5.391 -0.0258 -1.7160  0.9725
 1564WAT      O 4902   1.876   2.235   0.885  0.1521 -0.0138 -0.1972
 1564WAT     H1 4903   1.834   2.211   0.802 -0.6064 -0.6063  0.3443
 1564WAT     H2 4904   1.894   2.329   0.876 -1.5106  0.3197 -0.3803
 1565WAT      O 4905   3.375   5.298   2.843 -0.0727 -0.4875  1.2153
 1565WAT     H1 4906   3.389   5.211   2.880  0.4735 -1.3571 -0.9178
 1565WAT     H2 4907   3.463   5.333   2.828 -0.2856  0.3751  1.8710
 1566WAT      O 4908   4.451   3.358   3.137  0.0912 -0.4309 -0.1262
 1566WAT     H1 4909   4.537   3.332   3.170  0.5485 -0.5925 -1.3991
 1566WAT     H2 4910   4.394   3.285   3.160 -0.4355  0.8365  3.2730
 1567WAT      O 4911   0.700   4.419   4.083  0.4379 -0.0540  0.1347
 1567WAT     H1 4912   0.720   4.346   4.142  0.2955  0.3688  0.7158
 1567WAT     H2 4913   0.631   4.386   4.026  0.1643 -0.2817  0.5895
 1568WAT      O 4914   0.629   3.751   1.749  0.1815  0.1391 -0.6801
 1568WAT     H1 4915   0.615   3.764   1.655 -0.1863 -1.5420 -0.8777
 1568WAT     H2 4916   0.725   3.753   1.759  0.2696 -0.7198 -1.2625
 1569WAT      O 4917   0.455   0.266   2.837 -0.5354 -0.3113 -0.1647
 1569WAT     H1 4918   0.420   0.200   2.896 -0.5279 -1.4737 -1.4362
 1569WAT     H2 4919   0.406   0.346   2.859 -2.3846 -1.3502 -0.3758
 1570WAT      O 4920   1.282   4.165   4.002  0.0772 -0.0607  0.5471
 1570WAT     H1 4921   1.341   4.124   4.065 -0.2520 -0.1330  0.8160
 1570WAT     H2 4922   1.290   4.113   3.923 -0.3681 -0.6708  0.8972
 1571WAT      O 4923   4.118   4.327   4.769  0.1202 -0.0342 -0.5911
 1571WAT     H1 4924   4.023   4.317   4.780  0.1092 -0.4861 -1.0464
 1571WAT     H2 4925   4.143   4.255   4.711  1.2168 -1.8012  1.8416
 1572WAT      O 4926   1.539   0.853   3.073  0.4941  0.0183 -0.0344
 1572WAT     H1 4927   1.506   0.911   3.005 -0.0733  1.4241  1.3755
 1572WAT     H2 4928   1.501   0.886   3.154  1.3170 -1.4575  1.0235
 1573WAT      O 4929   1.124   4.486   4.003 -0.4814  1.0846 -0.2047
 1573WAT     H1 4930   1.125   4.442   4.088  0.8069 -0.5493 -1.0037
 1573WAT     H2 4931   1.031   4.503   3.985 -0.9990 -0.8938  0.3864
 1574WAT      O 4932   2.396   0.931   4.606 -0.4889  0.1481  0.5407
 1574WAT     H1 4933   2.405   1.001   4.541  0.2750  0.3810  0.8941
 1574WAT     H2 4934   2.301   0.919   4.615 -0.6123  0.6360 -0.0506
 1575WAT      O 4935   3.438   1.319   2.912 -0.3713 -0.2751  0.6030
 1575WAT     H1 4936   3.509   1.331   2.848 -0.4009 -2.4437  0.0990
 1575WAT     H2 4937   3.483   1.318   2.997 -0.0222  0.0582  0.4286
 1576WAT      O 4938   1.727   5.171   5.744 -0.3521  0.2271  0.6336
 1576WAT     H1 4939   1.798   5.119   5.705 -0.6805  0.9372 -1.0007
 1576WAT     H2 4940   1.736   5.156   5.838  0.9934 -0.9360  0.3661
 1577WAT      O 4941   1.999   2.482   2.092  0.3578 -0.0777 -0.4182
 1577WAT     H1 4942   2.013   2.426   2.016 -1.4919  0.2950 -1.0599
 1577WAT     H2 4943   2.048   2.562   2.073  0.0225 -0.0461 -1.1395
 1578WAT      O 4944   0.901   0.577   4.098 -0.1140  0.4569  0.2583
 1578WAT     H1 4945   0.996   0.572   4.085  0.0829  3.4638 -0.2088
 1578WAT     H2 4946   0.890   0.577   4.193  0.3313 -0.0674  0.3153
 1579WAT      O 4947   1.804   4.399   4.012 -0.4153  0.4442  0.5592
 1579WAT     H1 4948   1.818   4.305   4.021 -0.9300  0.0717 -1.7107
 1579WAT     H2 4949   1.740   4.421   4.079 -1.0444 -1.0325  0.4808
 1580WAT      O 4950   4.927   1.796   3.238 -0.6257  0.0416 -0.4272
 1580WAT     H1 4951   4.869   1.727   3.207 -2.4334  1.4263 -0.3214
 1580WAT     H2 4952   4.878   1.838   3.309 -0.1295  2.1805 -1.2855
 1581WAT      O 4953   2.473   5.180   5.066  0.1109  0.0224 -0.4220
 1581WAT     H1 4954   2.543   5.177   5.131 -1.4598  1.5529  1.4913
 1581WAT     H2 4955   2.505   5.128   4.993  3.0134  0.2770  0.5536
 1582WAT      O 4956   1.589   4.327   2.045  0.2255  0.2738  0.2062
 1582WAT     H1 4957   1.633   4.304   1.963  0.4673  0.3150  0.3266
 1582WAT     H2 4958   1.554   4.243   2.077 -0.0949  0.2951 -0.0689
 1583WAT      O 4959   3.718   4.585   3.124  0.3664 -0.2310 -0.6510
 1583WAT     H1 4960   3.797   4.576   3.175  0.5141  2.2582 -0.2898
 1583WAT     H2 4961   3.653   4.620   3.185 -0.4537 -0.4082 -1.3874
 1584WAT      O 4962   2.554   4.249   0.564 -0.3201  0.5274  0.3519
 1584WAT     H1 4963   2.518   4.283   0.645  0.1435  0.3364  0.6446
 1584WAT     H2 4964   2.593   4.326   0.521 -0.8234  0.6800  0.1708
 1585WAT      O 4965   0.783   1.525   4.112  0.1456 -0.0187  0.1579
 1585WAT     H1 4966   0.714   1.462   4.089  0.4846  0.0232 -1.0597
 1585WAT     H2 4967   0.752   1.565   4.193 -1.8351  0.7868 -0.9129
 1586WAT      O 4968   3.834   2.804   4.561 -0.2415 -0.0192  0.2893
 1586WAT     H1 4969   3.905   2.848   4.608 -1.1796 -0.4503  2.1684
 1586WAT     H2 4970   3.844   2.834   4.470  0.8732  1.8205  0.9708
 1587WAT      O 4971   2.087   4.354   5.691 -0.0112 -0.0530  0.1930
 1587WAT     H1 4972   2.078   4.413   5.617  0.8603  0.1428  0.2305
 1587WAT     H2 4973   2.025   4.387   5.756  1.6138  1.8663  0.8612
 1588WAT      O 4974   1.942   3.708   3.796 -0.3619  0.3584 -0.2670
 1588WAT     H1 4975   1.967   3.748   3.713  1.7267  0.5321  0.4046
 1588WAT     H2 4976   1.982   3.621   3.794 -2.8227 -0.8687 -0.6612
 1589WAT      O 4977   1.991   2.678   4.459  0.5919 -0.3440 -0.5339
 1589WAT     H1 4978   2.057   2.728   4.506  0.0341  1.4880 -1.6172
 1589WAT     H2 4979   1.929   2.650   4.527  1.9305 -1.2548  0.3494
 1590WAT      O 4980   4.242   5.567   1.759  0.1591 -0.0203 -0.5697
 1590WAT     H1 4981   4.285   5.647   1.788  1.7341 -0.5246 -1.3745
 1590WAT     H2 4982   4.198   5.592   1.678 -3.0141  1.0258  1.2957
 1591WAT      O 4983   3.185   4.213   4.472 -0.0154  0.1612 -0.8542
 1591WAT     H1 4984   3.279   4.224   4.487  0.0757 -0.6347 -0.7879
 1591WAT     H2 4985   3.170   4.248   4.384  0.1002  1.5107 -0.3583
 1592WAT      O 4986   1.537   0.521   1.986 -0.0996 -0.4666  0.0328
 1592WAT     H1 4987   1.602   0.488   1.925 -1.6189 -0.4406 -1.7041
 1592WAT     H2 4988   1.585   0.534   2.068  2.2746  0.4153 -1.3855
 1593WAT      O 4989   4.050   4.690   5.233 -0.4400  0.2887 -1.1447
 1593WAT     H1 4990   3.971   4.641   5.214  0.0234 -0.5875 -0.8579
 1593WAT     H2 4991   4.082   4.654   5.316  0.0023  0.9504 -1.0197
 1594WAT      O 4992   1.574   4.459   0.061 -0.4639  0.6251 -0.2407
 1594WAT     H1 4993   1.543   4.422  -0.022 -1.4502  1.7445 -0.3897
 1594WAT     H2 4994   1.547   4.550   0.058  0.3940  0.9367  0.8848
 1595WAT      O 4995   0.108   0.788   4.710  0.7988  0.0856  0.1125
 1595WAT     H1 4996   0.147   0.871   4.736  1.3508 -0.0716 -0.1878
 1595WAT     H2 4997   0.017   0.809   4.690  1.6887  1.3387 -3.2759
 1596WAT      O 4998   1.101   0.107   2.857  0.2565  0.2076 -0.5140
 1596WAT     H1 4999   1.085   0.039   2.922  2.5993  0.0820  0.0531
 1596WAT     H2 5000   1.039   0.176   2.878 -0.4307 -0.7001  0.5460
 1597WAT      O 5001   2.043   2.752   3.690  0.0698  0.4640 -0.0134
 1597WAT     H1 5002   2.048   2.709   3.605  0.3253  0.5816 -0.0597
 1597WAT     H2 5003   2.131   2.786   3.705  0.2700 -0.3125  0.6963
 1598WAT      O 5004   0.531   0.606   4.309 -0.2566 -0.3143 -0.2186
 1598WAT     H1 5005   0.453   0.575   4.354 -1.8105  0.3784 -2.2922
 1598WAT     H2 5006   0.562   0.530   4.258  0.2247 -0.4851  0.3203
 1599WAT      O 5007   2.290   4.961   3.449 -0.2335  0.1642 -0.1139
 1599WAT     H1 5008   2.267   5.053   3.465  1.7689  0.4014  1.9975
 1599WAT     H2 5009   2.209   4.913   3.463 -1.1462  1.5301 -0.4909
 1600WAT      O 5010   2.085   0.819   0.217  0.0333  0.1726  0.7532
 1600WAT     H1 5011   2.140   0.875   0.162 -0.3104 -0.4462 -0.2519
 1600WAT     H2 5012   2.146   0.755   0.254 -0.0976 -1.2676 -1.3081
 1601WAT      O 5013   2.783   1.218   5.537 -0.3087  0.3708 -0.0469
 1601WAT     H1 5014   2.695   1.250   5.520 -1.2292 -2.2914 -0.8257
 1601WAT     H2 5015   2.840   1.278   5.490 -1.7312  1.7425 -0.1034
 1602WAT      O 5016   3.519   4.321   0.141  0.0771  0.0970  0.0306
 1602WAT     H1 5017   3.499   4.262   0.214 -0.8710 -0.2727 -0.5105
 1602WAT     H2 5018   3.450   4.304   0.077 -1.6850  3.5467  0.8402
 1603WAT      O 5019   0.899   3.907   4.928 -0.1488 -0.1740  0.0626
 1603WAT     H1 5020   0.848   3.960   4.866 -1.8806 -1.7614  0.0458
 1603WAT     H2 5021   0.947   3.971   4.980 -1.0460  1.3395 -0.8795
 1604WAT      O 5022   2.418   5.326   1.525  0.5626 -0.2232  0.2969
 1604WAT     H1 5023   2.504   5.312   1.485  0.1518  0.1188 -0.7303
 1604WAT     H2 5024   2.378   5.239   1.529 -0.7041  0.0640 -3.1206
 1605WAT      O 5025   3.675   3.652   2.404 -0.0698 -0.0448 -0.2579
 1605WAT     H1 5026   3.753   3.616   2.447  0.1489  0.4554 -0.2342
 1605WAT     H2 5027   3.602   3.618   2.456  0.2257  1.1992  1.0241
 1606WAT      O 5028   4.002   5.495   2.266 -0.0584 -0.2108 -0.0430
 1606WAT     H1 5029   3.951   5.575   2.262 -1.0361 -0.6907  1.8295
 1606WAT     H2 5030   3.962   5.437   2.201  1.1296  1.0166 -1.9561
 1607WAT      O 5031   2.015   2.748   1.178  0.1924  0.1064  0.0818
 1607WAT     H1 5032   2.083   2.730   1.113  0.4569 -0.2647  0.4604
 1607WAT     H2 5033   1.958   2.671   1.175 -1.2657  1.1633 -1.5178
 1608WAT      O 5034   0.389   4.012   4.287 -0.3944  0.3997 -0.1194
 1608WAT     H1 5035   0.357   3.953   4.218  0.5898 -0.4363  0.1034
 1608WAT     H2 5036   0.467   3.968   4.321  0.2285  1.7320  0.2296
 1609WAT      O 5037   2.934   1.327   0.688 -0.4375 -0.2485 -0.0429
 1609WAT     H1 5038   2.966   1.354   0.774  0.8860  2.4854 -1.2396
 1609WAT     H2 5039   3.000   1.264   0.657 -1.5243 -2.1389  1.3055
 1610WAT      O 5040   3.672   0.963   1.366 -0.2249  0.0057 -0.3396
 1610WAT     H1 5041   3.646   1.032   1.305  1.9287  0.4831 -0.8079
 1610WAT     H2 5042   3.758   0.991   1.399 -0.1281 -1.5613  0.8640
 1611WAT      O 5043   2.202   1.518   0.576  0.3373  0.0233  0.0920
 1611WAT     H1 5044   2.273   1.465   0.539 -1.6175 -1.8389 -1.1649
 1611WAT     H2 5045   2.164   1.462   0.645 -2.8683 -1.1522 -2.3913
 1612WAT      O 5046   1.833   5.389   0.278  0.2302  0.3735  0.1036
 1612WAT     H1 5047   1.887   5.332   0.224 -0.0063 -0.7442  0.9908
 1612WAT     H2 5048   1.882   5.399   0.360  0.0690  1.1019  0.1203
 1613WAT      O 5049   0.942   0.303   4.611 -0.4013 -0.1262  0.5901
 1613WAT     H1 5050   0.918   0.293   4.703 -2.1708 -0.7720  0.1172
 1613WAT     H2 5051   0.858   0.301   4.565  0.4920 -0.6592 -1.1020
 1614WAT      O 5052   3.003   1.681   0.342  0.1456  0.5805  0.0297
 1614WAT     H1 5053   2.964   1.593   0.343  0.0138  0.6413  0.8553
 1614WAT     H2 5054   2.940   1.734   0.293  0.1760  0.2385 -0.3865
 1615WAT      O 5055   2.136   5.126   2.901 -0.5246 -0.2850 -0.4044
 1615WAT     H1 5056   2.110   5.100   2.813 -0.2911 -0.9137 -0.2926
 1615WAT     H2 5057   2.210   5.069   2.923 -1.3003 -0.9198  0.6326
 1616WAT      O 5058   2.303   4.952   5.411  0.2801 -0.2244 -0.4973
 1616WAT     H1 5059   2.357   4.977   5.486  0.5487  0.9362 -1.0388
 1616WAT     H2 5060   2.240   4.889   5.445  0.8936 -0.2942  0.5258
 1617WAT      O 5061   1.817   0.961   3.472 -0.1523 -0.2618 -0.2808
 1617WAT     H1 5062   1.838   0.886   3.527  1.1123 -0.0966 -0.5127
 1617WAT     H2 5063   1.831   0.929   3.383 -0.0227  0.1229 -0.3995
 1618WAT      O 5064   2.925   2.439   4.226  0.3087  0.0313 -0.0326
 1618WAT     H1 5065   2.989   2.508   4.208 -0.3300  1.0100  1.2335
 1618WAT     H2 5066   2.922   2.433   4.321 -2.8876  1.4877  0.1019
 1619WAT      O 5067   2.342   1.857   2.020 -0.1496 -0.3613  0.1172
 1619WAT     H1 5068   2.328   1.951   2.034  2.4194  0.0527  0.3650
 1619WAT     H2 5069   2.350   1.848   1.925 -1.1289 -0.4664  0.0382
 1620WAT      O 5070   2.882   5.312   1.627  0.3337 -0.8343 -0.5553
 1620WAT     H1 5071   2.934   5.388   1.600  2.4139 -0.3745  3.7922
 1620WAT     H2 5072   2.946   5.242   1.638 -1.4251 -3.1712 -3.5868
 1621WAT      O 5073   3.583   5.316   2.501 -0.6447 -0.1443 -0.1390
 1621WAT     H1 5074   3.509   5.260   2.476 -0.1278  0.0999 -2.4302
 1621WAT     H2 5075   3.570   5.396   2.450  1.3348 -0.2204 -0.8446
 1622WAT      O 5076   2.499   5.599   1.546  0.4754 -0.5899  0.4338
 1622WAT     H1 5077   2.560   5.596   1.472 -1.6857  0.1324 -1.4823
 1622WAT     H2 5078   2.454   5.514   1.543 -0.6126 -0.0158 -0.0184
 1623WAT      O 5079   3.320   4.858   0.911  0.1911  0.2114  0.1042
 1623WAT     H1 5080   3.290   4.771   0.884  0.4195  0.0406  0.4116
 1623WAT     H2 5081   3.240   4.911   0.911  0.0571  0.0110 -0.1156
 1624WAT      O 5082   1.260   4.841   3.073 -0.6274  0.1955  0.1079
 1624WAT     H1 5083   1.321   4.874   3.138 -0.3210  0.0482 -0.0985
 1624WAT     H2 5084   1.249   4.748   3.095 -0.6441  0.1818  0.0438
 1625WAT      O 5085   1.596   4.056   2.166  0.0171 -0.1160  0.2184
 1625WAT     H1 5086   1.601   4.114   2.242  0.0658  0.7945 -0.4633
 1625WAT     H2 5087   1.688   4.041   2.142  0.0084  1.8068 -1.2710
 1626WAT      O 5088   0.483   1.655   2.482 -0.3099 -0.2117 -0.3238
 1626WAT     H1 5089   0.557   1.714   2.465 -1.0237  0.2220 -2.0872
 1626WAT     H2 5090   0.426   1.704   2.541  0.2357 -0.1050  0.1323
 1627WAT      O 5091   0.851   0.604   2.666 -0.3705 -0.4274 -0.3815
 1627WAT     H1 5092   0.931   0.578   2.621  0.5832  0.1674  0.9006
 1627WAT     H2 5093   0.808   0.522   2.689  0.7761 -0.8076  0.4655
 1628WAT      O 5094   0.584   0.138   1.979 -0.7596  0.3286  0.5579
 1628WAT     H1 5095   0.668   0.183   1.988 -1.1639  1.2858 -0.3136
 1628WAT     H2 5096   0.605   0.045   1.994  1.0462  0.0769 -2.6581
 1629WAT      O 5097   3.360   4.340   5.629 -0.0892 -0.7961 -0.1091
 1629WAT     H1 5098   3.322   4.279   5.567  1.1790  1.4134 -3.3004
 1629WAT     H2 5099   3.454   4.336   5.614  0.0881  1.4167 -0.0068
 1630WAT      O 5100   0.042   0.129   2.106 -0.3741  0.2342 -0.5382
 1630WAT     H1 5101   0.112   0.180   2.064  0.3133 -0.4234 -0.2239
 1630WAT     H2 5102   0.022   0.060   2.043 -0.1576 -0.0678 -0.2769
 1631WAT      O 5103   2.841   3.370   1.480 -0.0571 -0.2903  0.8183
 1631WAT     H1 5104   2.824   3.294   1.536  0.3355  0.1923  1.6182
 1631WAT     H2 5105   2.756   3.412   1.470 -0.4750 -1.3733 -0.4686
 1632WAT      O 5106   1.586   4.573   3.752 -0.4290 -0.0347 -0.2552
 1632WAT     H1 5107   1.506   4.552   3.799  0.5141 -0.0840  1.4163
 1632WAT     H2 5108   1.629   4.488   3.739  1.1803  0.2745  2.3862
 1633WAT      O 5109   3.023   1.482   2.047  0.2148 -0.3390  0.0731
 1633WAT     H1 5110   3.067   1.561   2.079  0.4479 -1.0203  1.5247
 1633WAT     H2 5111   2.930   1.503   2.052  0.2986  0.2260 -0.6152
 1634WAT      O 5112   3.555   4.848   5.300  0.2581  0.9216 -0.1820
 1634WAT     H1 5113   3.642   4.886   5.312  0.8102 -0.5990  0.8193
 1634WAT     H2 5114   3.540   4.796   5.379 -1.5107  1.0299 -0.4030
 1635WAT      O 5115   3.067   1.349   3.791 -0.1043  0.1446 -0.4031
 1635WAT     H1 5116   3.098   1.311   3.709  0.1336  2.0800 -1.2541
 1635WAT     H2 5117   3.013   1.280   3.830  0.0236 -0.9259 -2.0170
 1636WAT      O 5118   2.451   0.138   1.241 -0.0586 -0.1467 -0.3085
 1636WAT     H1 5119   2.439   0.090   1.159  1.7933  1.1714 -1.4458
 1636WAT     H2 5120   2.522   0.093   1.286  0.1838  0.2078 -0.3275
 1637WAT      O 5121   1.728   1.483   5.060  0.0106 -0.3210 -0.0986
 1637WAT     H1 5122   1.632   1.481   5.068  0.0383 -1.9632  0.2167
 1637WAT     H2 5123   1.751   1.574   5.080 -1.3650 -0.2295  1.3811
 1638WAT      O 5124   2.898   5.512   0.086 -0.4249 -0.0216  0.0757
 1638WAT     H1 5125   2.810   5.510   0.122 -1.3357 -0.0017 -2.0227
 1638WAT     H2 5126   2.899   5.443   0.020  1.2053 -0.1526  0.1833
 1639WAT      O 5127   2.361   2.453   2.276 -0.1100 -0.3130  0.6186
 1639WAT     H1 5128   2.387   2.430   2.366  2.3773  1.6210  0.4982
 1639WAT     H2 5129   2.342   2.547   2.280 -0.2317 -0.2539 -0.8471
 1640WAT      O 5130   4.558   3.585   4.245  0.0506  0.5546 -0.1395
 1640WAT     H1 5131   4.465   3.588   4.267  0.2970 -2.4146  1.9024
 1640WAT     H2 5132   4.563   3.531   4.166 -0.0716  3.1759 -2.0659
 1641WAT      O 5133   3.659   4.818   1.949  0.0706 -0.3850 -0.0569
 1641WAT     H1 5134   3.655   4.870   2.029  2.2501 -0.7156  0.3343
 1641WAT     H2 5135   3.600   4.863   1.888 -1.3487  0.0796  1.5813
 1642WAT      O 5136   2.967   4.559   2.540  0.4961 -1.0430  0.0831
 1642WAT     H1 5137   2.880   4.562   2.579  0.8069 -1.1951  0.8048
 1642WAT     H2 5138   2.952   4.538   2.448 -0.2782 -0.2915  0.0265
 1643WAT      O 5139   1.796   5.317   1.034 -0.2601 -0.0335 -0.2410
 1643WAT     H1 5140   1.779   5.342   1.125  0.3922 -0.5947  0.0429
 1643WAT     H2 5141   1.767   5.393   0.983 -0.0442  0.5438  0.4755
 1644WAT      O 5142   2.501   0.377   5.604  0.0094 -0.0405  0.3715
 1644WAT     H1 5143   2.595   0.374   5.619 -0.0207 -0.0571  0.5488
 1644WAT     H2 5144   2.492   0.432   5.526  0.1868 -0.2962  0.1695
 1645WAT      O 5145   2.766   1.488   0.564  0.0743 -0.2389 -0.1358
 1645WAT     H1 5146   2.780   1.478   0.470  0.6012  0.8938 -0.1941
 1645WAT     H2 5147   2.845   1.453   0.604  1.1239  1.8290 -0.2640
 1646WAT      O 5148   3.956   4.637   0.279  0.1576 -0.1236  0.4076
 1646WAT     H1 5149   3.881   4.592   0.240  0.4538 -1.4950  1.3596
 1646WAT     H2 5150   4.015   4.652   0.205  0.1907 -1.6177  0.0841
 1647WAT      O 5151   4.005   3.949   2.630 -0.5363 -0.5066 -0.6079
 1647WAT     H1 5152   4.030   4.038   2.607 -1.6465 -0.7364 -2.9303
 1647WAT     H2 5153   4.043   3.935   2.717  1.2681  1.5417 -1.0003
 1648WAT      O 5154   1.957   4.685   0.788 -0.0065  0.4187  0.4161
 1648WAT     H1 5155   1.926   4.607   0.743 -0.2374  1.3358 -1.0744
 1648WAT     H2 5156   2.049   4.668   0.806 -0.3842 -0.7363  1.3567
 1649WAT      O 5157   4.531   3.829   2.318 -0.6771 -1.1674 -0.1847
 1649WAT     H1 5158   4.559   3.837   2.409 -0.3104 -0.3823 -0.3599
 1649WAT     H2 5159   4.504   3.917   2.294  1.7243 -0.7386 -1.6415
 1650WAT      O 5160   3.753   1.713   1.815  0.3333 -0.0733 -0.7194
 1650WAT     H1 5161   3.728   1.646   1.879 -0.1329 -0.0601 -0.8802
 1650WAT     H2 5162   3.670   1.754   1.790  0.7411  1.4055  0.2738
 1651WAT      O 5163   2.685   3.049   0.255 -0.1361 -0.0899  0.0537
 1651WAT     H1 5164   2.677   2.957   0.278 -0.0621  0.1130  0.9245
 1651WAT     H2 5165   2.600   3.071   0.216 -1.0129  0.0258  1.9028
 1652WAT      O 5166   3.476   1.940   3.140  0.5972  0.1110  0.3273
 1652WAT     H1 5167   3.411   1.870   3.142  1.5986 -0.9165 -1.2481
 1652WAT     H2 5168   3.427   2.019   3.115 -0.1637 -0.4979 -0.1204
 1653WAT      O 5169   1.584   4.243   2.367 -0.0079  0.2902  0.4497
 1653WAT     H1 5170   1.579   4.338   2.361  0.6606  0.3547  0.9542
 1653WAT     H2 5171   1.511   4.219   2.425 -0.1753  0.4875  0.3249
 1654WAT      O 5172   1.595   4.838   1.295  0.1391 -0.1896  0.4142
 1654WAT     H1 5173   1.620   4.915   1.244  2.3270 -0.5204  0.8634
 1654WAT     H2 5174   1.590   4.869   1.385 -0.0469 -0.3571  0.4628
 1655WAT      O 5175   3.533   4.941   1.458  0.4918  0.9248 -0.6799
 1655WAT     H1 5176   3.619   4.978   1.436  0.5827  1.3370  0.2953
 1655WAT     H2 5177   3.536   4.852   1.423  1.7291  0.5796  0.2270
 1656WAT      O 5178   3.208   5.182   5.066 -0.7147 -0.1765 -0.0224
 1656WAT     H1 5179   3.281   5.213   5.012  0.9371  0.1394  2.2031
 1656WAT     H2 5180   3.146   5.254   5.066  0.2110  0.6428  0.1219
 1657WAT      O 5181   1.970   4.733   2.414  0.0077 -0.7136  0.0338
 1657WAT     H1 5182   2.040   4.684   2.458  0.5647 -1.1155 -1.2753
 1657WAT     H2 5183   1.946   4.679   2.339 -1.5617 -0.4661  0.3221
 1658WAT      O 5184   2.901   4.899   0.516  0.2161  1.2932  0.2033
 1658WAT     H1 5185   2.887   4.872   0.426  0.5705  2.0569 -0.0947
 1658WAT     H2 5186   2.908   4.818   0.566  1.5777  0.8224 -0.6982
 1659WAT      O 5187   4.685   4.710   3.914  0.1266 -0.6053  0.1939
 1659WAT     H1 5188   4.762   4.676   3.959  1.4595  0.3229 -1.2911
 1659WAT     H2 5189   4.652   4.779   3.973  2.1271  0.9290 -0.3519
 1660WAT      O 5190   2.754   5.237   1.867 -0.1755 -0.0802 -0.0864
 1660WAT     H1 5191   2.792   5.249   1.780  2.2445  1.2340  1.0307
 1660WAT     H2 5192   2.712   5.321   1.887  1.5391  0.5864  0.9513
 1661WAT      O 5193   0.974   4.752   1.222  0.4178 -0.0065  0.0455
 1661WAT     H1 5194   0.947   4.827   1.169 -0.9183 -0.6990 -0.3028
 1661WAT     H2 5195   1.067   4.742   1.204  0.5536  1.3661 -0.1391
 1662WAT      O 5196   3.158   0.081   3.654  0.0733  0.4334 -0.1690
 1662WAT     H1 5197   3.248   0.049   3.640 -0.3680 -0.2228 -1.6900
 1662WAT     H2 5198   3.109   0.046   3.580 -1.4533  0.7876  0.6505
 1663WAT      O 5199   2.823   5.069   1.077  0.1373 -0.3059 -0.5388
 1663WAT     H1 5200   2.905   5.067   1.027  0.4064 -0.0981 -0.1119
 1663WAT     H2 5201   2.780   4.986   1.055  1.0626 -1.0150  0.2180
 1664WAT      O 5202   0.122   3.640   5.284  0.0137  0.1530 -0.2377
 1664WAT     H1 5203   0.097   3.558   5.239  0.6415  0.3201 -0.9139
 1664WAT     H2 5204   0.182   3.683   5.222  2.4302 -0.4851  1.5052
 1665WAT      O 5205   1.610   4.896   2.658  0.4898  0.3756 -0.2354
 1665WAT     H1 5206   1.570   4.873   2.742 -0.1931  2.0463 -0.0447
 1665WAT     H2 5207   1.663   4.821   2.635  1.0299  0.0255  1.9043
 1666WAT      O 5208   3.115   4.160   5.481  0.4649 -0.4722  0.1730
 1666WAT     H1 5209   3.082   4.099   5.415 -0.9843 -2.6896  2.7035
 1666WAT     H2 5210   3.045   4.224   5.491  1.5686  1.1337 -1.7925
 1667WAT      O 5211   3.784   1.305   2.034 -0.2360 -0.0754 -0.0093
 1667WAT     H1 5212   3.767   1.399   2.030 -0.7573 -0.1852 -0.7782
 1667WAT     H2 5213   3.745   1.276   2.116 -0.4221  0.3217  0.0422
 1668WAT      O 5214   2.246   0.729   1.486  0.0042  0.4757 -0.3441
 1668WAT     H1 5215   2.160   0.735   1.445 -0.9610 -3.4061  0.7100
 1668WAT     H2 5216   2.307   0.728   1.412 -1.1971 -0.5584 -1.3623
 1669WAT      O 5217   0.752   0.451   3.081  0.0180 -0.2546  0.0408
 1669WAT     H1 5218   0.792   0.372   3.044 -1.6250 -0.5274 -1.3263
 1669WAT     H2 5219   0.733   0.429   3.172 -0.8751 -1.6767 -0.4502
 1670WAT      O 5220   4.399   3.554   3.767  0.4146 -0.0359  0.0754
 1670WAT     H1 5221   4.365   3.470   3.798  2.6383 -0.7286  0.8799
 1670WAT     H2 5222   4.494   3.544   3.774  0.9102  1.3234 -3.0369
 1671WAT      O 5223   1.097   5.322   5.105  0.2500  0.8200 -0.1432
 1671WAT     H1 5224   1.133   5.263   5.039  0.4871  0.7931  0.0091
 1671WAT     H2 5225   1.098   5.408   5.063  1.8936  1.0763  0.3828
 1672WAT      O 5226   2.391   5.155   0.106  0.1189 -0.3781 -0.2751
 1672WAT     H1 5227   2.339   5.076   0.118 -2.2346  1.0906 -0.2026
 1672WAT     H2 5228   2.468   5.142   0.162 -1.0794 -1.8487  1.1009
 1673WAT      O 5229   3.461   5.630   1.281  0.4046 -0.5970 -0.6974
 1673WAT     H1 5230   3.527   5.634   1.212  0.9557  1.6949 -0.1384
 1673WAT     H2 5231   3.509   5.651   1.362 -0.4743 -1.8500  0.1884
 1674WAT      O 5232   3.011   5.072   5.630 -0.0730  0.0003  0.4494
 1674WAT     H1 5233   3.039   5.140   5.569 -2.1780  0.3281 -0.2230
 1674WAT     H2 5234   3.018   4.991   5.580 -0.9321  0.1657  0.0325
 1675WAT      O 5235   4.490   0.507   3.127 -0.5436  0.5635  0.4663
 1675WAT     H1 5236   4.534   0.437   3.078 -2.5398 -0.7359  0.4099
 1675WAT     H2 5237   4.526   0.501   3.216 -1.2598 -1.1077  0.6720
 1676WAT      O 5238   4.964   2.147   4.437 -0.0555  0.5505  0.2770
 1676WAT     H1 5239   4.870   2.159   4.448  0.1352  2.0338  0.5578
 1676WAT     H2 5240   4.974   2.058   4.404 -1.6762  0.8630 -1.2270
 1677WAT      O 5241   2.670   1.221   0.462  0.1582  0.8622  0.3095
 1677WAT     H1 5242   2.672   1.245   0.369 -0.5259 -0.5474 -0.1066
 1677WAT     H2 5243   2.762   1.222   0.489  0.4991  0.0791 -0.7384
 1678WAT      O 5244   2.107   4.587   2.769 -0.6716 -0.7605  0.2085
 1678WAT     H1 5245   2.048   4.630   2.831 -1.2743  1.4360 -1.7582
 1678WAT     H2 5246   2.147   4.658   2.720  1.4743 -2.3288 -0.4761
 1679WAT      O 5247   4.777   5.208   2.294  0.4154 -0.2926  0.3410
 1679WAT     H1 5248   4.708   5.142   2.285  0.7716 -0.5866 -0.3410
 1679WAT     H2 5249   4.774   5.258   2.212  0.0094  0.6862  0.9359
 1680WAT      O 5250   3.284   3.601   1.001  0.3915  0.2587 -0.3592
 1680WAT     H1 5251   3.365   3.564   0.967 -0.0984 -0.2027 -1.0569
 1680WAT     H2 5252   3.233   3.525   1.029 -0.1147  0.4830 -0.6567
 1681WAT      O 5253   3.275   4.036   3.195  0.5537  0.0290  0.6353
 1681WAT     H1 5254   3.348   3.996   3.147  1.1487  2.3019 -0.5096
 1681WAT     H2 5255   3.314   4.113   3.236 -0.8515  0.3313  1.4376
 1682WAT      O 5256   2.403   0.710   1.274  0.0795  0.5914  0.0716
 1682WAT     H1 5257   2.423   0.793   1.233 -0.9847 -0.0081 -1.7603
 1682WAT     H2 5258   2.319   0.683   1.236  0.9992 -1.9152 -0.3918
 1683WAT      O 5259   1.429   4.151   3.379 -0.2034 -0.2056  0.1696
 1683WAT     H1 5260   1.521   4.136   3.403 -0.4591 -1.0920  0.6325
 1683WAT     H2 5261   1.389   4.064   3.382 -1.0530  0.1652 -0.0785
 1684WAT      O 5262   3.392   0.802   0.258  0.1880  0.1912  0.0312
 1684WAT     H1 5263   3.423   0.883   0.218 -0.8787  1.8868  2.4164
 1684WAT     H2 5264   3.446   0.733   0.218  0.6340  1.9415 -2.5941
 1685WAT      O 5265   3.395   5.209   3.707  0.2637 -0.6785 -0.4058
 1685WAT     H1 5266   3.341   5.137   3.737 -0.9684 -0.4784 -1.9862
 1685WAT     H2 5267   3.333   5.281   3.693  1.5282  0.9099  1.6727
 1686WAT      O 5268   0.259   2.007   3.339  0.3166  0.6236  1.0998
 1686WAT     H1 5269   0.328   1.999   3.405  1.8074  3.3721  0.0519
 1686WAT     H2 5270   0.300   1.978   3.258 -0.7134 -0.4300  0.9351
 1687WAT      O 5271   2.583   1.528   4.972 -0.3481  0.0480 -0.5714
 1687WAT     H1 5272   2.597   1.434   4.958 -0.6198 -0.3620  1.6014
 1687WAT     H2 5273   2.667   1.567   4.949  1.1069 -1.2086  2.1304
 1688WAT      O 5274   4.881   1.873   3.727 -0.0849  0.4209 -0.2644
 1688WAT     H1 5275   4.934   1.953   3.720  0.7550 -0.2386 -1.8442
 1688WAT     H2 5276   4.849   1.857   3.639  2.6294 -2.8554 -0.8648
 1689WAT      O 5277   2.303   0.082   0.860  0.0817 -0.0583 -0.5141
 1689WAT     H1 5278   2.369   0.013   0.853 -0.7993 -0.9987  0.0510
 1689WAT     H2 5279   2.259   0.064   0.943 -0.4054  0.9795 -0.5332
 1690WAT      O 5280   3.124   5.562   2.709 -1.1526  0.0646 -0.1983
 1690WAT     H1 5281   3.160   5.485   2.665 -1.4969 -0.0611 -0.2613
 1690WAT     H2 5282   3.201   5.613   2.735 -0.9346  0.4824 -1.5601
 1691WAT      O 5283   2.617   4.533   2.308 -0.2601  0.3701  0.2601
 1691WAT     H1 5284   2.562   4.468   2.264 -0.6120  0.9368 -0.1374
 1691WAT     H2 5285   2.571   4.616   2.297  0.3158  0.7368  0.5461
 1692WAT      O 5286   0.106   3.616   2.830 -0.0133 -0.1113 -0.1516
 1692WAT     H1 5287   0.179   3.565   2.797 -0.5711 -0.5449 -0.7492
 1692WAT     H2 5288   0.037   3.605   2.764  0.4081  2.8303 -1.2669
 1693WAT      O 5289   3.291   5.423   0.416 -0.2943  0.1446 -0.0598
 1693WAT     H1 5290   3.315   5.361   0.348 -0.5958  0.5888 -0.5836
 1693WAT     H2 5291   3.210   5.463   0.384 -0.0972  0.8122  0.2584
 1694WAT      O 5292   1.580   4.015   0.001 -0.6516  0.2237 -0.1628
 1694WAT     H1 5293   1.493   3.989  -0.029  0.6727 -2.4740 -2.1222
 1694WAT     H2 5294   1.617   3.935   0.039  1.0831  1.2094  0.3443
 1695WAT      O 5295   3.051   1.177   1.066  0.0074 -0.1228 -0.5716
 1695WAT     H1 5296   2.979   1.115   1.063 -1.3924  1.3535  0.4905
 1695WAT     H2 5297   3.116   1.135   1.123 -0.5364 -0.9669 -0.5588
 1696WAT      O 5298   1.838   4.385   5.824 -0.2680  0.2024  0.3963
 1696WAT     H1 5299   1.806   4.320   5.762  1.8853  0.5226 -1.1871
 1696WAT     H2 5300   1.760   4.434   5.851 -1.3797 -0.3841 -1.5825
 1697WAT      O 5301   3.263   0.176   2.023 -0.0192 -0.2262 -0.6978
 1697WAT     H1 5302   3.274   0.084   1.996 -0.4324 -0.8452  1.1205
 1697WAT     H2 5303   3.352   0.211   2.024  0.1842 -0.7173 -1.0249
 1698WAT      O 5304   3.378   3.514   5.473  0.1716  0.1973  0.5697
 1698WAT     H1 5305   3.352   3.423   5.484 -3.2096  0.7429 -1.4883
 1698WAT     H2 5306   3.305   3.565   5.507  1.3026  2.1285  0.2973
 1699WAT      O 5307   2.203   4.638   3.250 -0.7618 -0.1864 -0.6076
 1699WAT     H1 5308   2.230   4.690   3.174 -0.2752 -0.1688 -0.4260
 1699WAT     H2 5309   2.125   4.682   3.282  0.1179  0.9536  0.0523
 1700WAT      O 5310   1.016   5.321   0.954 -0.3433  0.2500  0.3636
 1700WAT     H1 5311   1.022   5.360   1.041 -2.1689  1.8516 -0.1638
 1700WAT     H2 5312   1.014   5.396   0.894 -3.0917 -0.6150 -0.7491
 1701WAT      O 5313   0.621   4.641   3.931 -0.7799 -0.2299  0.1922
 1701WAT     H1 5314   0.651   4.570   3.987 -0.0073  0.4136  0.6132
 1701WAT     H2 5315   0.646   4.616   3.842  1.7013  0.6035  0.5948
 1702WAT      O 5316   1.275   5.355   4.009  0.2733 -0.6438  0.2973
 1702WAT     H1 5317   1.354   5.394   3.973 -0.1764 -1.0190 -1.1819
 1702WAT     H2 5318   1.307   5.284   4.065  1.0068 -0.3165  0.3054
 1703WAT      O 5319   4.744   2.797   2.567  0.2748  0.1014  0.0699
 1703WAT     H1 5320   4.831   2.785   2.530  0.5038 -1.2115  0.9947
 1703WAT     H2 5321   4.759   2.842   2.650  0.2437 -1.5166  0.9841
 1704WAT      O 5322   1.692   2.430   1.493 -0.2647  0.1776  0.0270
 1704WAT     H1 5323   1.658   2.502   1.546 -0.5744 -0.1848  0.3302
 1704WAT     H2 5324   1.634   2.425   1.417  0.0550  0.5650 -0.2434
 1705WAT      O 5325   1.781   1.016   4.586  0.0870  0.0574 -0.3041
 1705WAT     H1 5326   1.712   0.958   4.617  0.3032 -0.7603 -1.2891
 1705WAT     H2 5327   1.760   1.101   4.625 -0.5620 -0.5425  0.6935
 1706WAT      O 5328   1.807   3.021   5.699  0.1218  0.5181  0.0091
 1706WAT     H1 5329   1.779   3.039   5.610  2.0446  0.8703 -0.5644
 1706WAT     H2 5330   1.726   3.013   5.749 -1.0375 -1.3720 -2.0652
 1707WAT      O 5331   2.600   4.404   3.210 -0.2684 -0.6859  0.2385
 1707WAT     H1 5332   2.658   4.334   3.241 -0.2166 -1.5406 -1.6455
 1707WAT     H2 5333   2.548   4.363   3.141 -0.5724  1.0183 -0.5932
 1708WAT      O 5334   3.145   1.035  -0.029 -0.3415  0.2807  0.2154
 1708WAT     H1 5335   3.092   0.959  -0.005  0.0163 -0.2311 -0.5548
 1708WAT     H2 5336   3.169   1.075   0.054  0.5601 -1.2064  0.7122
 1709WAT      O 5337   1.717   3.340   2.083 -0.2271  0.3531  0.4496
 1709WAT     H1 5338   1.677   3.334   1.996 -1.2542  0.2738  0.9116
 1709WAT     H2 5339   1.651   3.304   2.142 -0.1844  1.8465  1.4511
 1710WAT      O 5340   1.510   3.273   2.899  0.5026 -0.1922  0.1957
 1710WAT     H1 5341   1.483   3.297   2.988  0.2100  0.0327  0.0487
 1710WAT     H2 5342   1.427   3.250   2.856 -0.2391  4.7417 -1.6512
 1711WAT      O 5343   2.522   2.577   3.386  0.4982 -0.0833  0.1433
 1711WAT     H1 5344   2.605   2.568   3.432  1.2312  1.3287 -0.8076
 1711WAT     H2 5345   2.464   2.620   3.450 -0.3260 -3.1534  1.6377
 1712WAT      O 5346   3.388   3.125   1.004  0.1820 -0.1372  0.3322
 1712WAT     H1 5347   3.457   3.146   1.068  3.0829 -2.4218 -1.7860
 1712WAT     H2 5348   3.405   3.184   0.931  0.8304 -1.6333 -0.7616
 1713WAT      O 5349   2.278   3.411   4.165  0.7482  0.1806  0.7686
 1713WAT     H1 5350   2.203   3.470   4.171  0.0011 -0.3928 -1.7699
 1713WAT     H2 5351   2.324   3.438   4.086  1.7834 -1.0869  0.9006
 1714WAT      O 5352   0.955   2.914   5.203 -0.0566  0.4912 -0.1449
 1714WAT     H1 5353   1.042   2.882   5.228 -0.1222 -0.9972 -1.6969
 1714WAT     H2 5354   0.970   2.962   5.121 -0.2938  2.8448  1.0811
 1715WAT      O 5355   2.647   1.421   0.806  0.3429  0.6282 -0.3421
 1715WAT     H1 5356   2.681   1.431   0.716 -3.6308 -1.2453 -2.3017
 1715WAT     H2 5357   2.565   1.470   0.805 -0.7579 -1.0717  1.6490
 1716WAT      O 5358   2.914   0.077   2.741 -0.1453  0.0282  0.1312
 1716WAT     H1 5359   2.973   0.002   2.735  0.3703  0.3359  1.0411
 1716WAT     H2 5360   2.956   0.134   2.805 -1.7691 -0.0481  1.3212
 1717WAT      O 5361   2.289   4.211   5.750 -0.4707  0.9829  0.2164
 1717WAT     H1 5362   2.363   4.265   5.721  0.0246 -1.3695 -3.6139
 1717WAT     H2 5363   2.211   4.257   5.718 -0.3429  1.2208  0.2432
 1718WAT      O 5364   3.895   0.409   5.479  0.8635  0.1188  0.6789
 1718WAT     H1 5365   3.901   0.318   5.508 -0.8426 -0.4378 -0.5881
 1718WAT     H2 5366   3.944   0.411   5.397 -1.1911 -0.3316 -0.6371
 1719WAT      O 5367   1.597   2.500   4.031 -0.2312 -0.7357  0.3588
 1719WAT     H1 5368   1.527   2.476   4.091  0.9458 -0.9727  1.6920
 1719WAT     H2 5369   1.650   2.563   4.080 -0.4596  0.7637 -1.2532
 1720WAT      O 5370   1.175   4.579   3.101 -0.2111  0.4777  0.0208
 1720WAT     H1 5371   1.182   4.589   3.006 -2.7390  2.4546 -0.0802
 1720WAT     H2 5372   1.144   4.489   3.114 -1.4764  0.7057 -1.1855
 1721WAT      O 5373   1.721   2.129   5.761  0.3763 -0.0123 -0.8727
 1721WAT     H1 5374   1.644   2.185   5.749  1.2015  1.1518 -0.9064
 1721WAT     H2 5375   1.709   2.058   5.698 -0.9242 -0.1542 -0.5036
 1722WAT      O 5376   1.776   0.535   4.178 -0.4326 -0.4860  0.1805
 1722WAT     H1 5377   1.817   0.453   4.151 -0.9330 -0.7847  0.3091
 1722WAT     H2 5378   1.797   0.541   4.272 -1.8258 -1.3442  0.5753
 1723WAT      O 5379   2.561   3.540   2.429  0.4462 -0.4893 -0.1198
 1723WAT     H1 5380   2.541   3.525   2.336 -1.1781  1.2035 -0.1039
 1723WAT     H2 5381   2.489   3.497   2.476  0.4202 -0.0260  0.2693
 1724WAT      O 5382   1.909   1.286   0.210 -0.5725  0.5277  0.0723
 1724WAT     H1 5383   1.995   1.314   0.177 -0.5315 -0.4081 -0.6582
 1724WAT     H2 5384   1.876   1.227   0.142 -0.0724 -2.2765  2.1097
 1725WAT      O 5385   2.840   3.803   3.533  0.0424 -0.2581 -0.3641
 1725WAT     H1 5386   2.927   3.780   3.499  0.1625 -1.5100  0.7331
 1725WAT     H2 5387   2.799   3.719   3.551 -1.1938  0.3403 -0.3149
 1726WAT      O 5388   0.756   5.008   2.764 -0.0542  0.4530 -0.3421
 1726WAT     H1 5389   0.699   5.086   2.765  1.0066  1.2492 -0.6568
 1726WAT     H2 5390   0.823   5.028   2.699  0.4372 -0.5891 -0.1701
 1727WAT      O 5391   4.632   0.757   2.647  0.1816 -0.1731 -0.0456
 1727WAT     H1 5392   4.590   0.716   2.572  2.6484 -2.8645 -0.1093
 1727WAT     H2 5393   4.712   0.707   2.661  0.9046  1.5640  3.0877
 1728WAT      O 5394   1.369   0.369   5.629 -0.7497 -0.0678 -0.0635
 1728WAT     H1 5395   1.435   0.304   5.606 -1.1578 -0.2005 -0.8815
 1728WAT     H2 5396   1.409   0.420   5.700  0.5760  0.4284 -1.1368
 1729WAT      O 5397   4.665   0.272   3.529  0.1212 -0.0037  0.0938
 1729WAT     H1 5398   4.618   0.252   3.447  0.4026  0.5402 -0.2054
 1729WAT     H2 5399   4.756   0.246   3.511  0.1613  0.0072  0.2797
 1730WAT      O 5400   1.684   1.157   4.933 -0.1418  0.3910  0.5556
 1730WAT     H1 5401   1.700   1.065   4.911 -0.0572  0.7680 -1.0448
 1730WAT     H2 5402   1.602   1.155   4.983  0.3143 -0.6260  1.3073
 1731WAT      O 5403   3.556   4.998   0.604 -0.3949  0.5676  0.0772
 1731WAT     H1 5404   3.507   5.078   0.622  2.1426  2.3552 -0.4146
 1731WAT     H2 5405   3.621   4.993   0.674 -0.3367 -0.9646 -0.0368
 1732WAT      O 5406   1.455   5.143   2.049 -0.0743  0.2119 -0.6330
 1732WAT     H1 5407   1.399   5.217   2.075  0.9831  1.2581 -1.2347
 1732WAT     H2 5408   1.530   5.184   2.005  1.5634 -1.0711  0.8119
 1733WAT      O 5409   0.143   4.413   4.321  0.3425 -0.6533  0.8207
 1733WAT     H1 5410   0.170   4.491   4.274 -1.0686  0.5564  1.8957
 1733WAT     H2 5411   0.224   4.366   4.339  1.0821 -0.1765 -1.0688
 1734WAT      O 5412   3.479   0.596   5.493 -0.4353 -0.2337 -0.2578
 1734WAT     H1 5413   3.397   0.595   5.543 -0.9129 -1.3110 -1.0147
 1734WAT     H2 5414   3.541   0.551   5.550 -0.7170 -0.5752 -0.2129
 1735WAT      O 5415   2.547   4.912   1.833  0.6936 -0.5294  0.7837
 1735WAT     H1 5416   2.623   4.854   1.847  2.5396  1.4477 -0.4728
 1735WAT     H2 5417   2.551   4.975   1.905  1.2244  0.5264 -0.1411
 1736WAT      O 5418   0.331   3.556   3.731 -0.4280 -0.4027 -0.1826
 1736WAT     H1 5419   0.336   3.625   3.665  2.1979 -1.2798 -1.0425
 1736WAT     H2 5420   0.287   3.597   3.805  0.1183  1.8793 -1.0304
 1737WAT      O 5421   3.596   0.866   1.623  0.0513 -0.0042  0.0269
 1737WAT     H1 5422   3.606   0.918   1.543 -0.4565  0.2909  0.1525
 1737WAT     H2 5423   3.560   0.928   1.687 -0.5934 -0.5172  0.1651
 1738WAT      O 5424   4.363   4.606   3.801  0.1408  0.0334  0.4333
 1738WAT     H1 5425   4.286   4.615   3.857 -0.4153  0.1534 -0.3336
 1738WAT     H2 5426   4.339   4.539   3.738  0.9459 -0.4586  0.6300
 1739WAT      O 5427   3.053   5.495   0.319  0.3824 -0.2211 -0.2197
 1739WAT     H1 5428   2.967   5.518   0.354  0.6452 -0.7896  0.8467
 1739WAT     H2 5429   3.047   5.513   0.226 -0.8142 -0.0305 -0.1166
 1740WAT      O 5430   2.330   0.962   0.385  0.1530  0.2048 -0.2673
 1740WAT     H1 5431   2.420   0.930   0.389  0.1414  0.2378  2.6428
 1740WAT     H2 5432   2.277   0.883   0.396 -0.1558  0.3084 -0.9795
 1741WAT      O 5433   1.653   2.671   3.817 -0.0279 -0.1681 -0.2626
 1741WAT     H1 5434   1.681   2.634   3.901  0.8811  1.3289  0.1463
 1741WAT     H2 5435   1.659   2.598   3.755 -0.2065 -1.1681  0.8608
 1742WAT      O 5436   3.201   1.494   0.026  0.1032  0.0548 -0.0395
 1742WAT     H1 5437   3.111   1.516  -0.000  0.6082  0.7271 -1.3016
 1742WAT     H2 5438   3.228   1.566   0.083  0.2159  0.4435 -0.5732
 1743WAT      O 5439   1.593   0.226   5.554  0.0801 -0.2013  0.8104
 1743WAT     H1 5440   1.663   0.272   5.508  0.0052 -0.6653  0.2272
 1743WAT     H2 5441   1.635   0.191   5.632  0.1441  0.8274  1.2545
 1744WAT      O 5442   3.409   3.257   2.016  0.0058 -0.2116 -0.1196
 1744WAT     H1 5443   3.422   3.163   2.003 -1.7151 -0.6562  0.9463
 1744WAT     H2 5444   3.411   3.294   1.928 -0.1102 -1.3751 -0.6312
 1745WAT      O 5445   2.801   3.680   3.178 -0.4880  0.3643 -0.2802
 1745WAT     H1 5446   2.745   3.659   3.103 -0.5903  1.6932 -0.5973
 1745WAT     H2 5447   2.890   3.659   3.149 -0.6885 -0.8493 -0.1055
 1746WAT      O 5448   3.565   0.553   0.086 -0.5785 -0.3729  0.6787
 1746WAT     H1 5449   3.584   0.526  -0.004 -0.1477  2.8695 -0.3297
 1746WAT     H2 5450   3.650   0.550   0.130 -0.4267 -0.0728  0.4107
 1747WAT      O 5451   0.822   4.170   3.899  0.0091 -0.2331  0.5507
 1747WAT     H1 5452   0.885   4.099   3.910  0.8778  0.3461 -0.4062
 1747WAT     H2 5453   0.856   4.240   3.955 -1.3350 -0.8367  2.1982
 1748WAT      O 5454   3.431   1.327   1.914  0.7080  0.1810 -0.0187
 1748WAT     H1 5455   3.495   1.259   1.935  0.6450 -0.3149 -1.3526
 1748WAT     H2 5456   3.347   1.283   1.918  0.5711  0.4565  0.1938
 1749WAT      O 5457   3.759   2.549   4.219  0.3415 -0.3955 -0.0394
 1749WAT     H1 5458   3.774   2.507   4.304  0.6537 -1.6755 -0.6881
 1749WAT     H2 5459   3.696   2.492   4.175  0.6559 -0.1018 -0.8978
 1750WAT      O 5460   2.958   2.049   2.034  0.4952  0.0478  0.0855
 1750WAT     H1 5461   3.050   2.065   2.052  0.1979  0.4638  1.3648
 1750WAT     H2 5462   2.918   2.042   2.121 -0.2567 -2.7242 -0.3804
 1751WAT      O 5463   2.595   3.501   1.502  0.6061 -0.0969  0.0571
 1751WAT     H1 5464   2.604   3.558   1.578  2.1117  2.0546 -1.6179
 1751WAT     H2 5465   2.597   3.560   1.427 -1.6902 -2.0358 -1.7004
 1752WAT      O 5466   2.647   0.226   2.344 -0.1121 -0.4431 -0.0720
 1752WAT     H1 5467   2.701   0.232   2.422  1.4222  1.8822 -1.2007
 1752WAT     H2 5468   2.710   0.222   2.271 -1.4826 -0.6830 -1.3014
 1753WAT      O 5469   4.055   1.982   5.000  0.2334 -0.0135  0.3308
 1753WAT     H1 5470   4.069   1.906   4.944 -1.6831  0.4276 -0.8322
 1753WAT     H2 5471   4.143   2.011   5.023  1.0247 -2.5589  0.8332
 1754WAT      O 5472   0.047   3.442   4.463  0.4494  0.1112 -0.8688
 1754WAT     H1 5473   0.113   3.377   4.487  1.2750  1.6323  1.3482
 1754WAT     H2 5474  -0.021   3.434   4.530  0.7729  1.7654 -0.3019
 1755WAT      O 5475   3.229   5.468   1.314  0.3485 -0.3427  0.0005
 1755WAT     H1 5476   3.148   5.517   1.299  0.5472 -0.2892 -0.9258
 1755WAT     H2 5477   3.298   5.533   1.305  0.5306 -0.4865  0.3280
 1756WAT      O 5478   0.381   2.943   4.922  0.1146 -0.3183  0.9239
 1756WAT     H1 5479   0.405   2.855   4.954  1.3482 -0.1917  0.4113
 1756WAT     H2 5480   0.456   2.998   4.946  0.0126  0.2756 -0.0759
 1757WAT      O 5481   2.671   5.138   3.394 -0.4630 -0.3906 -0.2998
 1757WAT     H1 5482   2.609   5.211   3.389  1.1122  1.0282  0.0780
 1757WAT     H2 5483   2.689   5.129   3.487  0.7294 -0.0397 -0.4851
 1758WAT      O 5484   3.836   4.354   2.274  0.2370 -0.5783  0.2367
 1758WAT     H1 5485   3.883   4.363   2.191 -2.3658  1.2707 -1.1655
 1758WAT     H2 5486   3.837   4.442   2.312 -0.8465 -0.8152  0.8597
 1759WAT      O 5487   3.869   0.344   3.385  0.4462  0.3809 -0.5645
 1759WAT     H1 5488   3.815   0.266   3.371  0.3153  0.1347  1.1911
 1759WAT     H2 5489   3.842   0.403   3.315 -1.2065 -0.2162 -0.4924
 1760WAT      O 5490   1.579   3.742   4.548 -0.4186  0.3782  0.1050
 1760WAT     H1 5491   1.609   3.750   4.639 -0.3358  2.3091 -0.0513
 1760WAT     H2 5492   1.485   3.725   4.555 -0.3861  0.3669  0.5547
 1761WAT      O 5493   1.730   1.885   3.574  0.2798  0.2067  0.3778
 1761WAT     H1 5494   1.642   1.922   3.565 -0.5279 -2.0029 -1.9411
 1761WAT     H2 5495   1.783   1.933   3.512  0.2468  0.2570  0.3881
 1762WAT      O 5496   4.272   4.109   3.425 -0.4430 -0.3164  0.0384
 1762WAT     H1 5497   4.338   4.077   3.487 -0.8515 -1.2669 -0.0120
 1762WAT     H2 5498   4.260   4.037   3.363 -1.1162  0.0740 -0.2943
 1763WAT      O 5499   1.608   0.143   2.378  0.4650  0.3302 -0.0977
 1763WAT     H1 5500   1.701   0.133   2.356  1.0597  0.7329  2.0628
 1763WAT     H2 5501   1.591   0.237   2.368  0.8369  0.5757  1.4267
 1764WAT      O 5502   3.578   3.758   5.744  0.0319 -0.1333 -0.1886
 1764WAT     H1 5503   3.583   3.736   5.651  1.7765 -2.3051  0.3476
 1764WAT     H2 5504   3.522   3.690   5.782 -2.3264  1.8444  0.1324
 1765WAT      O 5505   1.476   2.537   4.535 -0.2355 -0.1736 -0.3445
 1765WAT     H1 5506   1.393   2.575   4.562 -0.0455 -0.7360  1.1139
 1765WAT     H2 5507   1.472   2.446   4.563  1.6958  0.3002  1.8754
 1766WAT      O 5508   3.420   4.119   0.295 -0.2640  0.4612  0.3958
 1766WAT     H1 5509   3.448   4.048   0.354  0.8338 -0.1524 -0.8020
 1766WAT     H2 5510   3.426   4.081   0.207 -3.3046  0.8705 -0.0985
 1767WAT      O 5511   0.429   4.315   3.690 -0.6456 -0.0440  0.3123
 1767WAT     H1 5512   0.504   4.268   3.654  0.0606  0.3408  1.2489
 1767WAT     H2 5513   0.374   4.334   3.614  0.0978 -0.5095 -0.3578
 1768WAT      O 5514   1.562   1.024   3.997 -0.0869 -0.0872 -0.0297
 1768WAT     H1 5515   1.538   0.959   3.932 -0.3671 -0.4822  0.4613
 1768WAT     H2 5516   1.599   0.973   4.069 -0.1992  0.3058  0.3095
 1769WAT      O 5517   2.283   5.547   4.538 -0.2082  0.2253 -0.6682
 1769WAT     H1 5518   2.193   5.539   4.571  0.3015 -0.5947  0.5904
 1769WAT     H2 5519   2.307   5.459   4.512 -0.0319  0.5892 -1.7776
 1770WAT      O 5520   4.045   2.642   2.667  0.2834 -0.2750 -0.0339
 1770WAT     H1 5521   4.141   2.645   2.671  0.4808 -2.1033 -1.7716
 1770WAT     H2 5522   4.023   2.698   2.592  0.1665 -1.2980 -0.7844
 1771WAT      O 5523   1.627   4.252   0.220  0.4487  0.2405 -0.5082
 1771WAT     H1 5524   1.604   4.331   0.170 -0.8092 -0.6059 -1.3214
 1771WAT     H2 5525   1.592   4.180   0.168  0.6486 -0.7891  0.7506
 1772WAT      O 5526   1.490   3.376   5.808  0.2148 -0.6919 -0.6785
 1772WAT     H1 5527   1.421   3.310   5.803  2.8028 -3.7550  0.2992
 1772WAT     H2 5528   1.537   3.367   5.724  1.4211 -1.2153  0.0168
 1773WAT      O 5529   3.559   4.052   5.272 -0.3053 -0.0862  0.2425
 1773WAT     H1 5530   3.652   4.059   5.255 -0.8284  0.0826 -3.2101
 1773WAT     H2 5531   3.544   3.960   5.291  0.6747  0.1168  2.2695
 1774WAT      O 5532   4.633   0.465   4.725 -0.4503 -0.4500 -0.0943
 1774WAT     H1 5533   4.654   0.373   4.738  0.2365 -0.0437  2.0849
 1774WAT     H2 5534   4.571   0.486   4.796 -0.9377  0.6658 -0.8182
 1775WAT      O 5535   3.899   4.913   3.267  0.5374  0.5890  0.6038
 1775WAT     H1 5536   3.956   4.972   3.316  1.6584 -1.9505  2.5271
 1775WAT     H2 5537   3.826   4.895   3.326 -0.2520  0.6825 -0.3043
 1776WAT      O 5538   1.311   2.429   2.108 -0.1172  0.7546 -0.3603
 1776WAT     H1 5539   1.301   2.387   2.193  0.7510  0.8499 -0.1995
 1776WAT     H2 5540   1.327   2.357   2.047 -1.3456  0.6314 -0.5619
 1777WAT      O 5541   0.115   2.954   3.081 -0.5750 -0.3675  0.0457
 1777WAT     H1 5542   0.026   2.978   3.104  0.0132  2.4895 -0.3506
 1777WAT     H2 5543   0.109   2.917   2.993 -1.3562 -0.0964 -0.0180
 1778WAT      O 5544   1.268   3.375   2.244  0.3051  0.2603  0.3710
 1778WAT     H1 5545   1.232   3.321   2.173 -1.3173 -2.9390  3.3150
 1778WAT     H2 5546   1.246   3.464   2.220  0.3522 -0.5725 -3.3482
 1779WAT      O 5547   1.345   4.100   4.869  0.2738 -0.0196 -0.2481
 1779WAT     H1 5548   1.287   4.082   4.795 -0.8868  1.1293  0.3355
 1779WAT     H2 5549   1.430   4.117   4.829 -0.3114  0.5106 -1.3239
 1780WAT      O 5550   2.540   3.629   3.372  0.3900 -0.7123 -0.4958
 1780WAT     H1 5551   2.572   3.565   3.309 -1.0840 -1.0508 -0.9560
 1780WAT     H2 5552   2.589   3.709   3.353  1.2918 -1.3244 -0.8108
 1781WAT      O 5553   1.379   3.085   3.946 -0.6286 -0.1476  0.0188
 1781WAT     H1 5554   1.308   3.146   3.929 -0.4080  0.0140 -0.3398
 1781WAT     H2 5555   1.406   3.054   3.860 -0.6253 -0.6237  0.1873
 1782WAT      O 5556   2.693   2.816   3.962  0.3092 -0.2188  0.0698
 1782WAT     H1 5557   2.620   2.876   3.950 -0.5337 -1.2469 -0.0946
 1782WAT     H2 5558   2.741   2.851   4.036  0.5359  1.3158 -0.7542
 1783WAT      O 5559   3.964   2.347   3.977 -0.6721 -0.1950  0.1161
 1783WAT     H1 5560   3.899   2.281   3.953 -0.1787 -0.6073 -0.0950
 1783WAT     H2 5561   3.946   2.365   4.069  0.0112 -1.5807  0.5400
 1784WAT      O 5562   3.504   1.862   4.098 -0.4308  0.3661 -0.0414
 1784WAT     H1 5563   3.442   1.809   4.148 -1.3038  0.7626 -0.6887
 1784WAT     H2 5564   3.564   1.896   4.164 -0.3796 -0.7116  0.4908
 1785WAT      O 5565   1.243   1.506   3.106  0.5084  0.3773 -0.0041
 1785WAT     H1 5566   1.192   1.475   3.181  0.8499 -0.3255 -0.0533
 1785WAT     H2 5567   1.250   1.429   3.049  1.8144  0.3773  0.1151
 1786WAT      O 5568   1.015   4.541   5.765 -0.4248 -0.1874  0.1597
 1786WAT     H1 5569   1.050   4.614   5.714 -0.4295 -0.1624  0.1924
 1786WAT     H2 5570   1.093   4.494   5.795 -0.4228 -0.2267  0.0938
 1787WAT      O 5571   3.423   3.400   0.402  0.0787  0.0390  0.5471
 1787WAT     H1 5572   3.455   3.409   0.312  1.5138 -4.1767  0.4349
 1787WAT     H2 5573   3.328   3.387   0.392 -0.2820  2.4888  0.0204
 1788WAT      O 5574   1.385   4.628   3.325 -0.6976 -0.1992  0.2457
 1788WAT     H1 5575   1.311   4.617   3.266  0.0945  0.7308 -0.9593
 1788WAT     H2 5576   1.392   4.544   3.370 -1.8072 -0.6613 -0.4069
 1789WAT      O 5577   3.300   4.634   2.539  0.3183  0.2465 -0.2547
 1789WAT     H1 5578   3.265   4.681   2.463  1.3468 -0.2840 -1.0906
 1789WAT     H2 5579   3.286   4.694   2.613 -1.1139  0.5832 -0.7599
 1790WAT      O 5580   2.690   3.057   4.289 -0.4754 -0.2475  0.4066
 1790WAT     H1 5581   2.665   3.135   4.339 -0.6217 -0.4319  0.6188
 1790WAT     H2 5582   2.652   2.984   4.337 -4.7352 -0.2232 -2.3242
 1791WAT      O 5583   1.189   3.750   2.766 -0.3173 -0.0712 -0.0224
 1791WAT     H1 5584   1.123   3.690   2.799  0.7620 -0.2698  1.9491
 1791WAT     H2 5585   1.253   3.695   2.722 -1.3061  0.1028 -1.7652
 1792WAT      O 5586   2.933   3.587   0.988  0.3624 -0.0221  0.1353
 1792WAT     H1 5587   2.870   3.650   1.025  1.6729  0.9264  0.8624
 1792WAT     H2 5588   2.954   3.529   1.061  0.5878 -0.1157 -0.0032
 1793WAT      O 5589   4.291   3.032   4.143  0.2626 -0.5612 -0.3056
 1793WAT     H1 5590   4.228   3.068   4.081 -0.5823 -1.9189 -0.2831
 1793WAT     H2 5591   4.304   2.941   4.115  0.8565 -0.8277  0.7395
 1794WAT      O 5592   0.836   3.971   2.196 -0.1589  0.5250  0.2935
 1794WAT     H1 5593   0.847   4.048   2.253  2.0683  0.7806 -0.3860
 1794WAT     H2 5594   0.813   4.008   2.111  0.8695  0.4696 -0.0221
 1795WAT      O 5595   0.791   2.996   4.155  0.0429 -0.3314 -0.6018
 1795WAT     H1 5596   0.749   2.965   4.075  1.2825 -0.5276 -1.1985
 1795WAT     H2 5597   0.732   3.064   4.189 -0.1460  0.2692 -2.0770
 1796WAT      O 5598   2.800   0.834   0.018  0.6279 -0.1224  0.3714
 1796WAT     H1 5599   2.747   0.810   0.094  0.1834 -0.5647 -0.0698
 1796WAT     H2 5600   2.890   0.818   0.046  0.4365 -0.8216  0.6224
 1797WAT      O 5601   2.984   5.337   5.074  1.0832  0.2795  0.1297
 1797WAT     H1 5602   2.995   5.387   5.154  0.6945 -0.0517  0.3943
 1797WAT     H2 5603   2.921   5.269   5.097 -0.1521  1.0562 -0.8560
 1798WAT      O 5604   2.327   2.828   3.648 -0.0311  0.0959 -0.7427
 1798WAT     H1 5605   2.353   2.736   3.657 -0.8554 -0.1558 -0.8678
 1798WAT     H2 5606   2.321   2.842   3.553 -1.2631 -0.1293 -0.7206
 1799WAT      O 5607   2.974   1.361   5.415 -0.2912  0.1787  0.2247
 1799WAT     H1 5608   2.955   1.365   5.321 -1.7945  3.1077  0.5698
 1799WAT     H2 5609   3.068   1.343   5.418  0.2870  2.2449 -1.9436
 1800WAT      O 5610   2.445   4.098   3.883  0.7607  0.0484 -0.4742
 1800WAT     H1 5611   2.407   4.011   3.893 -0.9929  0.7002 -1.1255
 1800WAT     H2 5612   2.376   4.158   3.912  1.1644  1.2874 -1.9588
 1801WAT      O 5613   4.020   4.797   4.980  0.4819 -0.2237 -0.4115
 1801WAT     H1 5614   4.066   4.792   5.064  0.3259 -0.7617 -0.3552
 1801WAT     H2 5615   4.071   4.742   4.921 -0.4917 -1.4385 -0.1530
 1802WAT      O 5616   2.170   1.585   5.540  0.5026 -0.2861  0.5004
 1802WAT     H1 5617   2.151   1.633   5.459 -2.2348 -0.0647  1.1867
 1802WAT     H2 5618   2.145   1.646   5.610 -1.1626 -1.9273  1.4122
 1803WAT      O 5619   3.926   2.924   4.310  0.0564 -0.4637  0.4759
 1803WAT     H1 5620   3.914   2.861   4.240  1.6428  0.1701 -0.4309
 1803WAT     H2 5621   3.889   3.005   4.276  2.3805  0.3064 -0.4487
 1804WAT      O 5622   2.115   5.053   4.267  0.7761  0.9020  0.1651
 1804WAT     H1 5623   2.135   4.970   4.310  0.6938  0.4331 -0.6945
 1804WAT     H2 5624   2.196   5.103   4.274  1.1782  0.3242 -0.2833
 1805WAT      O 5625   3.648   3.066   2.951 -0.0446 -0.3248  0.3578
 1805WAT     H1 5626   3.661   2.978   2.986 -1.8275  0.0058  2.0183
 1805WAT     H2 5627   3.561   3.092   2.983  0.6935  2.2931  0.4865
 1806WAT      O 5628   0.197   0.314   4.545 -0.3847  0.2874  0.0101
 1806WAT     H1 5629   0.192   0.221   4.564  2.1212 -0.4755 -2.4758
 1806WAT     H2 5630   0.172   0.357   4.628  0.3138 -2.5482  1.8115
 1807WAT      O 5631   0.427   3.237   4.507  0.0956  0.6531  1.2687
 1807WAT     H1 5632   0.405   3.329   4.523  1.1457  1.1806 -0.0798
 1807WAT     H2 5633   0.344   3.197   4.481 -0.1904  1.4633  0.8795
 1808WAT      O 5634   0.806   3.865   5.287 -0.1218 -0.1199  0.6892
 1808WAT     H1 5635   0.721   3.859   5.329  0.5074  1.0319  2.2008
 1808WAT     H2 5636   0.791   3.833   5.198 -2.6384  2.1025  0.1894
 1809WAT      O 5637   3.780   4.912   4.677 -0.1698  0.7392 -0.0589
 1809WAT     H1 5638   3.850   4.964   4.636  1.6899 -0.9815  0.7665
 1809WAT     H2 5639   3.742   4.971   4.742 -0.6736  2.2703 -1.6493
 1810WAT      O 5640   3.897   3.561   2.534 -0.3480  0.3645 -0.3652
 1810WAT     H1 5641   3.954   3.620   2.583 -1.3630  1.1096 -0.0501
 1810WAT     H2 5642   3.957   3.496   2.497  0.6215  0.7164  0.5212
 1811WAT      O 5643   1.873   3.986   2.170  0.4983 -0.3335 -0.6766
 1811WAT     H1 5644   1.919   3.957   2.248  1.3019  0.2552 -0.9219
 1811WAT     H2 5645   1.885   3.914   2.107  1.7088  0.1129 -0.9800
 1812WAT      O 5646   1.673   5.497   0.801 -0.1852  0.4310  0.4745
 1812WAT     H1 5647   1.731   5.570   0.779  0.1347  0.3635  1.0714
 1812WAT     H2 5648   1.643   5.464   0.717 -1.1444  1.8976  0.2181
 1813WAT      O 5649   3.703   1.902   3.001  0.0735 -0.4797  0.0014
 1813WAT     H1 5650   3.719   1.990   2.967  1.9941 -0.4478  0.8392
 1813WAT     H2 5651   3.632   1.913   3.063  0.3717  0.5146  0.1917
 1814WAT      O 5652   4.172   2.317   4.875  0.4393 -0.3974  0.1027
 1814WAT     H1 5653   4.079   2.298   4.888  0.5862 -2.4878 -1.2776
 1814WAT     H2 5654   4.173   2.402   4.831 -0.9768 -1.1105 -1.4283
 1815WAT      O 5655   4.899   3.770   4.745 -0.3809 -0.4493  0.1608
 1815WAT     H1 5656   4.921   3.677   4.753  1.1102 -0.2559 -1.0851
 1815WAT     H2 5657   4.932   3.794   4.658 -2.2515  0.8577 -0.2279
 1816WAT      O 5658   2.992   2.133   0.175  0.3871  0.1677  0.4240
 1816WAT     H1 5659   2.898   2.115   0.169  0.4913  0.2025 -2.2895
 1816WAT     H2 5660   3.016   2.101   0.263 -1.9969 -0.4496  0.9441
 1817WAT      O 5661   1.734   2.329   5.448  0.0916 -0.1614  1.0842
 1817WAT     H1 5662   1.678   2.254   5.429  0.6938 -0.4767  0.5364
 1817WAT     H2 5663   1.691   2.373   5.521 -0.7167 -0.5603  0.8577
 1818WAT      O 5664   2.505   3.212   4.602 -0.2858 -0.6471 -0.2906
 1818WAT     H1 5665   2.593   3.173   4.604  0.6981  1.4030 -1.1158
 1818WAT     H2 5666   2.490   3.231   4.509  0.6851  3.7481  0.2558
 1819WAT      O 5667   1.370   3.155   0.788  0.0496 -0.1060  0.2796
 1819WAT     H1 5668   1.416   3.239   0.796 -0.2919  0.0462  0.7068
 1819WAT     H2 5669   1.440   3.091   0.773  0.5127 -0.0306  1.9533
 1820WAT      O 5670   2.221   3.573   1.368 -0.6741 -0.0735  0.3325
 1820WAT     H1 5671   2.209   3.544   1.459 -0.9171  0.0729  0.3478
 1820WAT     H2 5672   2.179   3.659   1.365  0.1888  0.3557  0.3312
 1821WAT      O 5673   4.483   1.503   3.067  0.0715 -0.5581  0.0269
 1821WAT     H1 5674   4.518   1.521   2.979  1.1778  2.7850  0.9830
 1821WAT     H2 5675   4.439   1.584   3.091  0.1664 -1.2373  2.7384
 1822WAT      O 5676   1.384   1.294   4.607  0.7924  0.6298  0.1017
 1822WAT     H1 5677   1.294   1.315   4.579  0.8109  1.7010  0.8112
 1822WAT     H2 5678   1.430   1.275   4.525 -0.0856  0.0200 -0.2713
 1823WAT      O 5679   4.329   3.013   2.644  0.1439 -0.6199 -0.9643
 1823WAT     H1 5680   4.240   3.001   2.679  0.4418 -0.9548 -0.2843
 1823WAT     H2 5681   4.383   3.025   2.722  0.8232 -1.2841 -1.3220
 1824WAT      O 5682   3.615   5.275   4.514  0.1573  0.3744  0.0844
 1824WAT     H1 5683   3.582   5.285   4.603 -2.2455  1.9611 -0.8556
 1824WAT     H2 5684   3.644   5.363   4.490  0.9934 -0.0869 -0.6498
 1825WAT      O 5685   0.223   2.747   4.200 -0.0688  0.0241  0.0490
 1825WAT     H1 5686   0.131   2.743   4.226 -0.2720 -2.6601 -0.7500
 1825WAT     H2 5687   0.221   2.738   4.105  1.0221 -1.1884  0.1172
 1826WAT      O 5688   1.473   2.163   2.875 -0.4150  0.1505  0.3198
 1826WAT     H1 5689   1.448   2.136   2.786  0.1543  0.8771 -0.0745
 1826WAT     H2 5690   1.565   2.139   2.881 -0.5358 -0.1931  0.8436
 1827WAT      O 5691   1.461   4.039   4.505 -0.7467  0.2344 -0.1727
 1827WAT     H1 5692   1.461   3.948   4.534 -0.4116  0.4833  0.6486
 1827WAT     H2 5693   1.489   4.089   4.582  0.6249  0.8939 -1.0425
 1828WAT      O 5694   4.528   1.051   3.434  0.8713  0.1974 -0.1761
 1828WAT     H1 5695   4.455   0.992   3.419  0.4438  0.5151  0.5558
 1828WAT     H2 5696   4.537   1.100   3.353  0.0204  0.4172 -0.1486
 1829WAT      O 5697   3.784   3.927   5.774  0.1114 -0.1552 -0.2458
 1829WAT     H1 5698   3.713   3.862   5.778 -0.3646  0.3518 -0.2888
 1829WAT     H2 5699   3.855   3.881   5.730 -0.2231 -0.6471 -0.2913
 1830WAT      O 5700   3.755   4.572   5.186  0.3183 -0.4061 -0.2402
 1830WAT     H1 5701   3.796   4.490   5.158 -0.2242 -1.0433  0.7740
 1830WAT     H2 5702   3.662   4.558   5.170  0.2116 -0.0381  0.0663
 1831WAT      O 5703   3.774   3.093   2.265 -0.2268 -0.4390 -0.1306
 1831WAT     H1 5704   3.761   3.060   2.176 -0.9323  1.8186 -0.9390
 1831WAT     H2 5705   3.724   3.175   2.268 -0.5639 -0.6446  2.4882
 1832WAT      O 5706   2.463   2.886   2.952  0.2508  0.1624 -0.2743
 1832WAT     H1 5707   2.520   2.835   3.010  0.7093  1.4472  0.4530
 1832WAT     H2 5708   2.394   2.825   2.926 -0.2408 -0.3308  1.9974
 1833WAT      O 5709   1.242   2.183   2.678  0.6534 -0.0791  0.6140
 1833WAT     H1 5710   1.222   2.090   2.685  0.1693 -0.2996 -2.4351
 1833WAT     H2 5711   1.333   2.186   2.648  0.5903  0.4212  0.4561
 1834WAT      O 5712   3.200   4.689   5.213 -0.3241 -0.7375  0.0061
 1834WAT     H1 5713   3.128   4.636   5.180  0.0243 -0.5153 -1.1615
 1834WAT     H2 5714   3.218   4.752   5.144  1.7762 -1.5556 -0.2885
 1835WAT      O 5715   2.815   2.952   5.733  0.2186  0.5513  0.2439
 1835WAT     H1 5716   2.767   2.900   5.668  0.3676 -0.9544  1.2903
 1835WAT     H2 5717   2.765   3.034   5.739 -1.0183 -0.1329 -0.2366
 1836WAT      O 5718   2.871   1.097   1.586  0.3476  0.0488  0.4699
 1836WAT     H1 5719   2.846   1.077   1.496  0.6420  0.2843  0.3363
 1836WAT     H2 5720   2.861   1.192   1.593  2.0479  0.2763  0.1511
 1837WAT      O 5721   2.393   0.848   5.153  0.4950  0.2068 -0.1097
 1837WAT     H1 5722   2.301   0.873   5.158 -0.4050 -2.1231 -2.3253
 1837WAT     H2 5723   2.396   0.761   5.192  1.6292  0.0168 -0.5746
 1838WAT      O 5724   4.400   1.909   3.656 -0.0981  0.5254 -0.0829
 1838WAT     H1 5725   4.480   1.940   3.699  0.7080  0.9796 -1.8531
 1838WAT     H2 5726   4.343   1.986   3.656  0.9194  1.3384 -2.1479
 1839WAT      O 5727   3.163   1.612   0.545 -0.3702  0.5447 -0.7343
 1839WAT     H1 5728   3.134   1.667   0.618 -3.7050 -0.6555 -0.9517
 1839WAT     H2 5729   3.111   1.644   0.471  0.6397 -0.2965 -1.8408
 1840WAT      O 5730   1.453   2.661   2.234  0.7011 -0.0415  0.3058
 1840WAT     H1 5731   1.422   2.579   2.194  1.4712 -1.4704  2.4872
 1840WAT     H2 5732   1.540   2.675   2.196  0.6520 -0.3441  0.0766
 1841WAT      O 5733   1.235   4.972   5.447 -0.0671 -0.1009  0.1724
 1841WAT     H1 5734   1.227   5.053   5.397 -0.3001  0.0161  0.3979
 1841WAT     H2 5735   1.323   4.940   5.426 -0.9682 -1.2770 -2.1554
 1842WAT      O 5736   0.327   1.129   3.679  0.4012  0.5694 -0.5510
 1842WAT     H1 5737   0.306   1.042   3.646 -1.2233  0.9728 -0.6526
 1842WAT     H2 5738   0.313   1.187   3.604 -1.0378  1.2114  0.1973
 1843WAT      O 5739   1.403   4.380   4.605 -0.0003 -0.4712  0.8111
 1843WAT     H1 5740   1.456   4.306   4.637 -1.2453 -2.2350 -0.9418
 1843WAT     H2 5741   1.451   4.413   4.529 -0.9366 -1.5552 -0.2937
 1844WAT      O 5742   2.083   3.253   0.260  0.2439 -0.1036  0.3791
 1844WAT     H1 5743   2.134   3.190   0.208 -0.8512 -1.0017  0.3742
 1844WAT     H2 5744   1.992   3.228   0.246 -0.1394  0.5283  1.6283
 1845WAT      O 5745   3.739   4.822   3.800  0.2389 -0.0740  0.2191
 1845WAT     H1 5746   3.757   4.844   3.892  1.3683  0.2322 -0.0681
 1845WAT     H2 5747   3.773   4.896   3.750 -1.4641  0.3452 -0.4047
 1846WAT      O 5748   2.995   4.546   5.127 -0.7187  0.0335 -0.3003
 1846WAT     H1 5749   2.994   4.478   5.060  0.0260 -0.0576 -0.2272
 1846WAT     H2 5750   2.952   4.506   5.203  2.1323 -1.3736  0.6846
 1847WAT      O 5751   3.404   0.861   2.834 -0.0413 -0.2687  0.5104
 1847WAT     H1 5752   3.413   0.888   2.743  1.3662 -0.5814  0.5327
 1847WAT     H2 5753   3.443   0.774   2.838 -1.5767 -0.9643  1.0984
 1848WAT      O 5754   2.910   3.678   2.881  0.2044 -0.0754 -0.2394
 1848WAT     H1 5755   3.005   3.688   2.876  0.4467 -1.8646  0.1923
 1848WAT     H2 5756   2.882   3.675   2.789  0.1426  3.2824 -0.4608
 1849WAT      O 5757   2.267   2.335   1.571  0.1484  0.2907  0.4320
 1849WAT     H1 5758   2.172   2.335   1.570  0.0833 -1.0262  1.8295
 1849WAT     H2 5759   2.291   2.243   1.560  1.1857  0.3845  1.6845
 1850WAT      O 5760   3.173   2.781   3.636 -0.2349  0.1000 -0.2454
 1850WAT     H1 5761   3.166   2.747   3.547  0.3519 -2.1188  0.4979
 1850WAT     H2 5762   3.265   2.809   3.643  0.2875 -1.6690  0.2794
 1851WAT      O 5763   2.703   3.877   4.449 -0.1600 -0.0358 -0.1203
 1851WAT     H1 5764   2.751   3.899   4.529  0.8887 -1.1399 -0.4334
 1851WAT     H2 5765   2.674   3.962   4.415 -0.4474  0.4708  1.3087
 1852WAT      O 5766   3.838   4.035   4.015  0.2325  0.6770 -0.2332
 1852WAT     H1 5767   3.769   4.043   4.080 -0.6224  2.5026 -1.2949
 1852WAT     H2 5768   3.919   4.032   4.066 -0.5147 -0.1167  0.9713
 1853WAT      O 5769   1.364   3.936   1.558 -0.1573 -0.0725  0.5562
 1853WAT     H1 5770   1.286   3.914   1.508 -0.6646 -0.0738  1.3279
 1853WAT     H2 5771   1.415   3.855   1.562 -0.3595 -0.2026  0.4724
 1854WAT      O 5772   3.814   2.104   5.140  0.0163 -0.8601  0.2406
 1854WAT     H1 5773   3.896   2.104   5.091 -0.8776  0.8575 -1.3844
 1854WAT     H2 5774   3.781   2.014   5.132  1.6883 -1.5665  0.9179
 1855WAT      O 5775   0.816   2.919   4.646 -0.3024 -0.0095 -0.2176
 1855WAT     H1 5776   0.774   3.005   4.646 -1.6317 -0.6300  0.2605
 1855WAT     H2 5777   0.854   2.910   4.559 -0.3313  0.9670 -0.3399
 1856WAT      O 5778   1.837   1.191   0.648 -0.0729  0.6015 -0.0655
 1856WAT     H1 5779   1.778   1.124   0.684  1.7807 -1.6663 -0.9787
 1856WAT     H2 5780   1.795   1.219   0.567  0.4665 -1.7280 -1.2280
 1857WAT      O 5781   3.610   1.944   4.572  0.6241  0.2185  0.3284
 1857WAT     H1 5782   3.635   1.932   4.664  0.5493  1.0137  0.4572
 1857WAT     H2 5783   3.649   1.869   4.527  3.9883  1.7853  0.3855
 1858WAT      O 5784   4.851   0.146   2.575 -0.3706 -0.0038 -0.4868
 1858WAT     H1 5785   4.899   0.188   2.647 -1.5263  0.5780 -0.0202
 1858WAT     H2 5786   4.799   0.077   2.616 -0.3926 -0.2311 -0.8847
 1859WAT      O 5787   3.101   0.645   4.683  0.4686 -0.6251 -0.3166
 1859WAT     H1 5788   3.055   0.594   4.617 -1.4284  0.9387 -0.2744
 1859WAT     H2 5789   3.105   0.733   4.648  0.0750  0.0809  1.3305
 1860WAT      O 5790   3.484   4.660   0.619 -0.1630  0.0538 -1.0020
 1860WAT     H1 5791   3.567   4.703   0.602 -0.0564  1.0901  1.6476
 1860WAT     H2 5792   3.493   4.574   0.578  1.6576  0.6470 -1.9518
 1861WAT      O 5793   2.250   2.647   1.708 -0.7495  0.3518 -0.0317
 1861WAT     H1 5794   2.252   2.667   1.614 -0.6668 -1.1222 -0.3704
 1861WAT     H2 5795   2.289   2.560   1.715  0.5151  0.9983  1.5523
 1862WAT      O 5796   1.628   5.082   5.183 -0.3440  0.1580 -0.2166
 1862WAT     H1 5797   1.648   5.145   5.252 -1.1274 -0.6926  0.8295
 1862WAT     H2 5798   1.532   5.083   5.176 -0.2562  0.7636 -1.8320
 1863WAT      O 5799   0.921   2.953   5.495  0.0620 -0.2460  0.5268
 1863WAT     H1 5800   0.835   2.993   5.481 -1.2671 -2.7490  0.9407
 1863WAT     H2 5801   0.953   2.935   5.407 -1.1792 -1.8232  0.3408
 1864WAT      O 5802   3.224   5.015   4.144  0.1510 -0.6854 -0.4088
 1864WAT     H1 5803   3.226   5.063   4.227  0.6584 -1.5222  0.0675
 1864WAT     H2 5804   3.231   4.923   4.169 -0.9604 -1.0261 -1.3107
 1865WAT      O 5805   1.656   4.302   0.506 -0.2196  0.0734 -0.3893
 1865WAT     H1 5806   1.636   4.313   0.412  1.0612  0.3053 -0.6516
 1865WAT     H2 5807   1.575   4.328   0.550 -1.0350 -0.5542 -1.4413
 1866WAT      O 5808   1.125   1.594   2.555 -0.0361  0.2346  0.0419
 1866WAT     H1 5809   1.081   1.662   2.606 -1.3163  0.1284 -0.8953
 1866WAT     H2 5810   1.141   1.635   2.470  2.2668  0.4794  0.5185
 1867WAT      O 5811   1.701   1.904   5.614 -0.2884  0.1474 -0.1510
 1867WAT     H1 5812   1.762   1.859   5.556 -0.9813 -0.8559 -0.1179
 1867WAT     H2 5813   1.616   1.864   5.596 -0.5258 -0.2012  1.5548
 1868WAT      O 5814   1.936   0.394   5.200 -0.2890 -0.0310  0.1846
 1868WAT     H1 5815   2.015   0.405   5.254 -0.1323  3.5496 -0.5210
 1868WAT     H2 5816   1.963   0.334   5.130  0.7432 -1.4666  1.7178
 1869WAT      O 5817   1.106   2.976   3.299 -0.3313 -0.3980  0.7089
 1869WAT     H1 5818   1.027   3.027   3.316  0.1242  0.2061  1.0601
 1869WAT     H2 5819   1.141   3.012   3.218  0.6308  0.6831  1.5713
 1870WAT      O 5820   1.426   3.048   3.445 -0.0349  0.9061 -0.0975
 1870WAT     H1 5821   1.452   2.967   3.402 -1.3698  0.0933  0.5583
 1870WAT     H2 5822   1.436   3.030   3.538 -2.2566  0.7431  0.1629
 1871WAT      O 5823   1.982   4.597   4.043  0.6902 -0.2895 -0.4473
 1871WAT     H1 5824   2.005   4.613   3.952 -1.2431  0.8821 -0.7899
 1871WAT     H2 5825   1.909   4.534   4.038 -0.4572  0.9499  0.1611
 1872WAT      O 5826   2.018   3.385   5.256 -0.4382  0.8474  0.2272
 1872WAT     H1 5827   2.020   3.364   5.162 -1.4706 -2.0584  0.7538
 1872WAT     H2 5828   2.097   3.437   5.271  0.3199  0.4647 -2.0481
 1873WAT      O 5829   2.327   4.224   1.707 -0.4607  0.2825 -0.3160
 1873WAT     H1 5830   2.286   4.249   1.624 -0.6604  0.6755 -0.1050
 1873WAT     H2 5831   2.323   4.304   1.760  0.9078  0.4378 -0.4194
 1874WAT      O 5832   2.712   2.407   1.358 -0.2597  1.0005 -0.5147
 1874WAT     H1 5833   2.696   2.359   1.439 -0.4155  1.5694 -0.2036
 1874WAT     H2 5834   2.644   2.474   1.356  0.3062  1.5873 -0.6450
 1875WAT      O 5835   2.148   2.851   4.810 -0.5132 -0.5928  0.0178
 1875WAT     H1 5836   2.206   2.852   4.734 -1.2835  2.8471 -0.7174
 1875WAT     H2 5837   2.109   2.764   4.810  0.9465 -1.3314 -2.3742
 1876WAT      O 5838   3.097   3.872   0.426  0.0330  0.5920 -0.0664
 1876WAT     H1 5839   3.153   3.906   0.495  1.1769  0.0796 -0.7192
 1876WAT     H2 5840   3.061   3.791   0.461  0.5455  0.3756 -0.0340
 1877WAT      O 5841   2.107   2.409   5.142  0.2553 -0.0099 -0.1546
 1877WAT     H1 5842   2.050   2.371   5.074 -0.4820  1.5735 -0.4643
 1877WAT     H2 5843   2.052   2.409   5.221  0.2935  0.2768 -0.1272
 1878WAT      O 5844   2.919   0.499   3.250  0.0919  0.2740 -0.1771
 1878WAT     H1 5845   2.976   0.438   3.203  2.3665 -0.1654  2.8754
 1878WAT     H2 5846   2.931   0.583   3.205  1.8615 -0.2082 -0.6936
 1879WAT      O 5847   4.052   5.467   2.535  0.4177  0.1924  0.1755
 1879WAT     H1 5848   4.031   5.461   2.442  1.1835  1.3337 -0.1022
 1879WAT     H2 5849   4.097   5.552   2.543  0.4169  0.0765  1.5702
 1880WAT      O 5850   4.438   3.283   4.352  0.3353  0.1227 -0.0013
 1880WAT     H1 5851   4.517   3.329   4.322 -0.7194  1.8757 -0.2350
 1880WAT     H2 5852   4.366   3.330   4.311 -0.8733 -1.1673  0.5651
 1881WAT      O 5853   1.537   2.245   0.722 -0.4255  0.2182  0.0655
 1881WAT     H1 5854   1.627   2.239   0.689 -0.7975 -1.3127 -0.7935
 1881WAT     H2 5855   1.501   2.323   0.679 -0.0650 -0.2171 -1.0616
 1882WAT      O 5856   4.447   4.591   4.564 -0.3327  0.2579 -0.5080
 1882WAT     H1 5857   4.524   4.578   4.620 -0.8316  1.0052  0.3834
 1882WAT     H2 5858   4.482   4.625   4.482  0.4247 -0.9099 -0.7076
 1883WAT      O 5859   1.947   1.714   2.717 -0.5597 -0.1206 -0.3385
 1883WAT     H1 5860   1.923   1.676   2.633 -1.6177  0.3447 -0.2625
 1883WAT     H2 5861   1.964   1.806   2.699 -1.1228  0.0585 -0.0015
 1884WAT      O 5862   1.625   4.074   5.149  0.2018  0.6549 -0.2096
 1884WAT     H1 5863   1.696   4.080   5.085 -0.3081  1.0756 -0.7485
 1884WAT     H2 5864   1.669   4.077   5.234  0.7338  2.8312 -0.5001
 1885WAT      O 5865   1.209   0.296   5.392  0.1415 -0.2841  0.3070
 1885WAT     H1 5866   1.286   0.267   5.344 -0.1316 -1.7427  0.7049
 1885WAT     H2 5867   1.243   0.325   5.477  0.2591 -1.0428  0.5279
 1886WAT      O 5868   1.603   2.377   3.467  0.2759  0.3982 -0.2139
 1886WAT     H1 5869   1.643   2.433   3.401  1.8418  0.0442  0.3916
 1886WAT     H2 5870   1.626   2.417   3.551 -1.8266  0.9411  0.1791
 1887WAT      O 5871   2.055   2.190   0.209 -0.2150  0.3170  0.2527
 1887WAT     H1 5872   2.060   2.131   0.284  1.9795 -1.6098 -1.2599
 1887WAT     H2 5873   2.009   2.138   0.142 -1.4095  1.6995 -0.0558
 1888WAT      O 5874   4.886   0.913   3.812  0.2035  0.0109 -0.3854
 1888WAT     H1 5875   4.798   0.952   3.809  0.1060 -0.2335 -0.9206
 1888WAT     H2 5876   4.885   0.856   3.889  0.9572  2.4470  1.5693
 1889WAT      O 5877   2.144   4.734   5.316 -0.2784  0.0518  0.2765
 1889WAT     H1 5878   2.240   4.741   5.320 -0.2417 -0.6210  0.8397
 1889WAT     H2 5879   2.123   4.739   5.223  0.2629  0.6566  0.1783
 1890WAT      O 5880   2.829   4.545   0.195 -0.0984 -0.0847  0.2107
 1890WAT     H1 5881   2.810   4.520   0.105  1.4359 -0.1403 -0.1300
 1890WAT     H2 5882   2.915   4.508   0.213 -0.3204  0.0239  1.6702
 1891WAT      O 5883   1.256   2.981  -0.012  0.0242 -0.0287  0.3661
 1891WAT     H1 5884   1.206   2.908  -0.049  0.3021 -0.5641  1.0118
 1891WAT     H2 5885   1.289   2.947   0.071  1.5072  0.2836 -0.0577
 1892WAT      O 5886   4.392   1.526   4.003  0.2904 -0.0002 -0.1863
 1892WAT     H1 5887   4.472   1.578   4.004  0.5835 -0.4148 -1.0236
 1892WAT     H2 5888   4.382   1.495   4.093  1.4087 -0.4454 -0.2036
 1893WAT      O 5889   2.207   1.842   4.201 -0.0250 -0.2658  0.1315
 1893WAT     H1 5890   2.255   1.900   4.260  2.4518 -1.2501 -0.7624
 1893WAT     H2 5891   2.236   1.754   4.225 -1.3377 -0.9064 -0.5386
 1894WAT      O 5892   0.206   1.462   4.394 -0.7022  0.4887 -0.1849
 1894WAT     H1 5893   0.239   1.376   4.417  0.9616  0.6540 -1.7282
 1894WAT     H2 5894   0.158   1.448   4.312  2.1112  1.3525 -2.1645
 1895WAT      O 5895   3.796   4.376   1.029  0.3123 -0.2717 -0.0534
 1895WAT     H1 5896   3.834   4.359   0.943 -0.1369 -0.7374 -0.1654
 1895WAT     H2 5897   3.820   4.467   1.049 -1.1739  0.4935 -1.5109
 1896WAT      O 5898   4.772   0.149   2.255  0.1371  0.0955  0.1931
 1896WAT     H1 5899   4.853   0.175   2.210 -0.6983  0.8107 -0.9428
 1896WAT     H2 5900   4.735   0.080   2.200 -0.4843  0.4151  0.2029
 1897WAT      O 5901   2.122   2.940   2.274 -0.2913 -1.3034 -0.0007
 1897WAT     H1 5902   2.194   3.001   2.292  0.8648 -2.4909 -0.4262
 1897WAT     H2 5903   2.043   2.987   2.302  0.7360 -0.3767  1.4870
 1898WAT      O 5904   0.373   3.507   2.782  0.4499  0.0881 -0.4869
 1898WAT     H1 5905   0.459   3.485   2.745  0.6780 -0.5187  0.3678
 1898WAT     H2 5906   0.346   3.428   2.829 -1.4754 -0.4199 -2.3177
 1899WAT      O 5907   2.360   1.575   4.231  0.4766  0.2794  0.2601
 1899WAT     H1 5908   2.346   1.491   4.187 -0.7767 -0.4980  2.0046
 1899WAT     H2 5909   2.413   1.626   4.170  1.7999 -1.9987 -0.6101
 1900WAT      O 5910   2.172   2.921   4.294  0.0904  0.6304  0.2704
 1900WAT     H1 5911   2.097   2.968   4.258  0.3661  0.6312 -0.3071
 1900WAT     H2 5912   2.246   2.980   4.282  0.2081  0.5824  0.7358
 1901WAT      O 5913   3.528   3.268   4.065 -0.5787 -0.3200 -0.1602
 1901WAT     H1 5914   3.563   3.182   4.085  0.2023  0.6751  3.3820
 1901WAT     H2 5915   3.437   3.265   4.094 -0.6207 -0.0273 -0.2520
 1902WAT      O 5916   4.577   2.859   3.101  0.1762 -0.1390 -0.4964
 1902WAT     H1 5917   4.532   2.787   3.144  0.5750  0.4636  0.9944
 1902WAT     H2 5918   4.567   2.841   3.007 -1.2682 -1.1571 -0.1787
 1903WAT      O 5919   1.640   2.807   5.414  0.8684 -0.0844 -0.3226
 1903WAT     H1 5920   1.724   2.760   5.413  0.5569 -0.8175  2.1005
 1903WAT     H2 5921   1.665   2.899   5.419  1.6970 -0.3502  2.8550
 1904WAT      O 5922   2.872   2.574   5.135 -0.1251 -0.2287 -0.2081
 1904WAT     H1 5923   2.823   2.589   5.216  0.1733 -0.7234  0.0710
 1904WAT     H2 5924   2.950   2.630   5.144 -0.3532  0.1237 -0.3969
 1905WAT      O 5925   0.462   2.477   2.500  0.1394  0.1272  0.0558
 1905WAT     H1 5926   0.525   2.548   2.487  0.5759 -0.0248  1.2451
 1905WAT     H2 5927   0.509   2.398   2.472  0.2148  0.1066  0.2415
 1906WAT      O 5928   1.119   3.136   2.081  0.0222  0.2175  0.0571
 1906WAT     H1 5929   1.085   3.167   1.997  0.6120 -1.1503 -0.7155
 1906WAT     H2 5930   1.041   3.107   2.129 -0.1176 -1.2184 -0.9876
 1907WAT      O 5931   2.266   2.715   2.957 -0.2495  0.0922  0.1422
 1907WAT     H1 5932   2.287   2.646   2.894 -1.5032  0.4091 -0.6458
 1907WAT     H2 5933   2.250   2.667   3.039  1.2170 -0.3326  0.2197
 1908WAT      O 5934   4.616   3.086   4.737 -0.4104  0.3966  0.4685
 1908WAT     H1 5935   4.679   3.074   4.809 -0.2700 -1.3781  0.1064
 1908WAT     H2 5936   4.671   3.091   4.658 -0.6614 -0.0584  0.2618
 1909WAT      O 5937   2.578   1.895   0.330  0.1754 -0.2992  0.6213
 1909WAT     H1 5938   2.500   1.950   0.328  0.1353 -0.3749 -0.0860
 1909WAT     H2 5939   2.560   1.829   0.397  0.8521  1.4600  2.6757
 1910WAT      O 5940   1.319   3.059   5.043 -0.3044  0.1741 -0.2954
 1910WAT     H1 5941   1.368   3.004   5.104 -0.9535  0.1942  0.2612
 1910WAT     H2 5942   1.350   3.033   4.956  0.5771  0.0942  0.0383
 1911WAT      O 5943   1.787   4.919   0.883 -0.3271 -0.2865  0.3235
 1911WAT     H1 5944   1.794   4.987   0.816  0.8886  1.3012  1.9506
 1911WAT     H2 5945   1.846   4.850   0.853  2.4662  1.6067  0.9965
 1912WAT      O 5946   3.648   3.598   5.455 -0.1007 -0.3017  0.0431
 1912WAT     H1 5947   3.672   3.538   5.385  2.3068  2.6113 -1.8709
 1912WAT     H2 5948   3.556   3.581   5.471 -0.1063 -2.8044 -2.0284
 1913WAT      O 5949   2.048   0.387   4.540 -0.8608 -0.2038  0.1889
 1913WAT     H1 5950   2.135   0.424   4.533 -0.9185  0.0036  0.5337
 1913WAT     H2 5951   2.059   0.310   4.594 -1.2294  1.0355  2.1258
 1914WAT      O 5952   1.788   0.730   0.857 -0.3928  0.0939 -0.1746
 1914WAT     H1 5953   1.745   0.716   0.772 -1.0622  0.2795  0.1273
 1914WAT     H2 5954   1.796   0.643   0.895 -1.8412  0.1785  0.3982
 1915WAT      O 5955   3.210   3.867   4.883 -0.0975 -0.0799  0.6802
 1915WAT     H1 5956   3.228   3.883   4.976  2.0212  0.0612  0.2979
 1915WAT     H2 5957   3.202   3.954   4.845  2.2622 -0.0099  0.2114
 1916WAT      O 5958   2.105   2.583   4.786  0.0068 -0.2793 -0.6160
 1916WAT     H1 5959   2.169   2.513   4.794 -0.8063 -0.9325  0.3669
 1916WAT     H2 5960   2.021   2.541   4.803 -0.7332  0.5043 -2.1692
 1917WAT      O 5961   1.010   2.198   4.062 -0.7749 -0.8528  0.1046
 1917WAT     H1 5962   0.958   2.120   4.040 -1.3778 -0.7261  1.0261
 1917WAT     H2 5963   0.985   2.218   4.152  0.7948 -0.7025  0.5190
 1918WAT      O 5964   2.885   3.657   5.219 -0.0562  0.5957 -0.2997
 1918WAT     H1 5965   2.936   3.599   5.163  0.0351  0.2780  0.1156
 1918WAT     H2 5966   2.928   3.654   5.304  0.0747  1.4288 -0.3203
 1919WAT      O 5967   0.907   3.055   2.257  0.1179 -0.7219 -0.8798
 1919WAT     H1 5968   0.827   3.050   2.310  0.5308 -0.7976 -0.2493
 1919WAT     H2 5969   0.972   3.005   2.307  0.1399 -2.0534 -2.1785
 1920WAT      O 5970   1.246   2.086   4.179 -0.0155  0.6514 -0.2276
 1920WAT     H1 5971   1.165   2.116   4.139 -0.6117  0.4433  0.7781
 1920WAT     H2 5972   1.308   2.158   4.163 -0.6899  1.2723 -0.1169
 1921WAT      O 5973   1.398   3.624   2.633  0.3376 -0.4400 -0.1815
 1921WAT     H1 5974   1.342   3.551   2.609 -1.6217  0.8100  0.3559
 1921WAT     H2 5975   1.455   3.637   2.558  0.8073 -2.5579 -0.2389
 1922WAT      O 5976   2.584   5.522   4.231 -0.1924  0.5669  0.4291
 1922WAT     H1 5977   2.677   5.519   4.213 -0.3302 -0.0293 -0.2046
 1922WAT     H2 5978   2.564   5.437   4.270 -0.3904  0.8620  0.9873
 1923WAT      O 5979   4.083   0.677   4.186 -0.6878 -0.0568 -0.4796
 1923WAT     H1 5980   3.992   0.677   4.216 -1.0595 -0.7755 -1.5509
 1923WAT     H2 5981   4.108   0.584   4.184 -0.0014  0.1196 -0.3966
 1924WAT      O 5982   4.764   3.042   4.112  0.1584 -0.2868  0.6263
 1924WAT     H1 5983   4.778   3.062   4.019 -0.7987 -1.6381  0.1621
 1924WAT     H2 5984   4.818   3.106   4.158  1.3972 -0.1748 -0.8782
 1925WAT      O 5985   2.006   2.359   4.339 -0.3433  0.9647 -0.3236
 1925WAT     H1 5986   1.971   2.340   4.253  0.2018  0.5404 -0.4636
 1925WAT     H2 5987   1.935   2.340   4.400  0.1016 -1.5264 -0.4601
 1926WAT      O 5988   2.986   2.136   4.884  0.0943 -0.3342 -0.2574
 1926WAT     H1 5989   2.963   2.044   4.870 -1.5148  0.1168 -0.8343
 1926WAT     H2 5990   2.965   2.152   4.976  0.0020 -0.4524 -0.2569
 1927WAT      O 5991   4.050   0.025   4.500 -0.9932 -0.6934 -0.1734
 1927WAT     H1 5992   4.085  -0.059   4.529 -1.1048 -0.8606 -0.5120
 1927WAT     H2 5993   4.008   0.062   4.578 -3.6860 -2.3556 -0.6851
 1928WAT      O 5994   4.279   0.660   3.546 -0.2188 -0.3472  0.4675
 1928WAT     H1 5995   4.272   0.565   3.539  0.7701 -0.3456 -1.0851
 1928WAT     H2 5996   4.373   0.678   3.543 -0.4142  0.7166  0.1030
 1929WAT      O 5997   2.082   4.027   4.823 -0.3337 -0.0329 -0.0223
 1929WAT     H1 5998   2.124   4.042   4.739 -0.1546 -1.9659 -0.3257
 1929WAT     H2 5999   1.988   4.025   4.804 -0.6335  3.2402  0.4908
 1930WAT      O 6000   0.324   3.697   5.075 -0.5012 -0.2593 -0.6275
 1930WAT     H1 6001   0.411   3.734   5.090 -0.1146 -1.3029 -0.2097
 1930WAT     H2 6002   0.312   3.700   4.981  1.2698 -2.8579 -1.0316
 1931WAT      O 6003   3.893   2.130   2.680 -0.6321 -0.1344  0.7693
 1931WAT     H1 6004   3.821   2.088   2.632 -1.3781  0.4724  1.3278
 1931WAT     H2 6005   3.920   2.203   2.624  0.0771 -0.8080  0.2069
 1932WAT      O 6006   1.632   0.506   0.053 -0.3214 -0.0281 -0.0018
 1932WAT     H1 6007   1.708   0.544   0.096 -2.5268  3.7566  0.9882
 1932WAT     H2 6008   1.594   0.448   0.120  0.9537 -0.9863 -0.0753
 1933WAT      O 6009   4.031   4.468   3.727 -0.6508  0.0526  0.2189
 1933WAT     H1 6010   4.017   4.502   3.815  0.2790 -2.5942  1.5208
 1933WAT     H2 6011   4.127   4.465   3.718 -0.7353  0.2371 -0.8666
 1934WAT      O 6012   2.608   5.187   4.707 -0.3210 -0.0616 -0.3534
 1934WAT     H1 6013   2.592   5.141   4.789  2.2260 -0.3163  0.0829
 1934WAT     H2 6014   2.617   5.279   4.732  1.0703 -0.2152 -0.2010
 1935WAT      O 6015   3.497   3.874   4.661 -0.0314 -0.1359 -0.4683
 1935WAT     H1 6016   3.407   3.876   4.692 -0.0802  1.3708 -0.6448
 1935WAT     H2 6017   3.517   3.965   4.639  1.5275 -0.4490 -0.4586
 1936WAT      O 6018   1.924   5.418   1.724 -0.2973 -0.4701  0.4022
 1936WAT     H1 6019   1.861   5.357   1.686 -0.1490 -0.5303  0.2493
 1936WAT     H2 6020   1.903   5.503   1.685 -0.9382 -0.2832  1.1276
 1937WAT      O 6021   4.075   4.043   5.115 -0.4665  0.5046  0.2848
 1937WAT     H1 6022   4.164   4.006   5.112 -0.2698  1.0311 -1.4842
 1937WAT     H2 6023   4.088   4.137   5.104 -1.2767  0.4878 -1.0656
 1938WAT      O 6024   0.540   2.203   4.561 -0.0363  0.0604 -0.4203
 1938WAT     H1 6025   0.541   2.239   4.649  1.4877 -0.1555 -0.3152
 1938WAT     H2 6026   0.471   2.251   4.515 -0.2221  0.8104  0.6268
 1939WAT      O 6027   4.706   4.502   3.682  0.0322 -0.7953  0.1882
 1939WAT     H1 6028   4.663   4.502   3.597  0.7331 -2.3151 -0.1897
 1939WAT     H2 6029   4.638   4.531   3.743 -1.0190 -1.4739 -0.6255
 1940WAT      O 6030   1.078   1.732   3.489  0.8174  1.0661  0.2483
 1940WAT     H1 6031   1.166   1.752   3.459  0.4453  4.7306  1.1489
 1940WAT     H2 6032   1.023   1.742   3.412  1.1267 -1.7707 -0.4459
 1941WAT      O 6033   4.856   2.891   2.050  0.1381  0.1374 -0.2331
 1941WAT     H1 6034   4.812   2.814   2.085 -0.9121  1.5288  1.6869
 1941WAT     H2 6035   4.828   2.895   1.959 -0.4721 -1.2630 -0.1326
 1942WAT      O 6036   2.301   2.377   4.780 -0.0293 -0.1614 -0.3294
 1942WAT     H1 6037   2.227   2.315   4.782  0.4341 -0.7144  0.1409
 1942WAT     H2 6038   2.317   2.392   4.687 -1.0271  0.3225 -0.4331
 1943WAT      O 6039   0.748   3.586   3.311  0.2081 -0.3532 -0.1462
 1943WAT     H1 6040   0.657   3.571   3.287  0.0812  0.5821 -0.2952
 1943WAT     H2 6041   0.745   3.662   3.369  0.6395 -1.8019  1.8852
 1944WAT      O 6042   0.279   3.225   4.090 -0.2242  0.0523 -0.3742
 1944WAT     H1 6043   0.298   3.144   4.042 -0.6110 -0.7261  0.7432
 1944WAT     H2 6044   0.265   3.196   4.180 -2.3256  1.0975 -0.3052
 1945WAT      O 6045   0.296   0.699   3.369  0.4476 -0.2461 -0.0848
 1945WAT     H1 6046   0.328   0.789   3.373  0.2715 -0.2226  1.1945
 1945WAT     H2 6047   0.201   0.708   3.374  0.4755 -0.5471  1.2061
 1946WAT      O 6048   0.721   3.267   2.886  0.3990 -0.0846 -0.1282
 1946WAT     H1 6049   0.678   3.323   2.822 -3.8302 -1.5251  1.1052
 1946WAT     H2 6050   0.753   3.192   2.836 -0.8812 -0.1570 -0.8698
 1947WAT      O 6051   2.947   1.269   4.498  0.1158  0.3589 -0.0562
 1947WAT     H1 6052   3.022   1.232   4.451 -0.6955  0.5574 -1.6009
 1947WAT     H2 6053   2.944   1.360   4.468 -0.2717  0.5670  0.6126
 1948WAT      O 6054   1.340   2.566   3.411  0.8277 -0.3578 -0.0375
 1948WAT     H1 6055   1.392   2.516   3.474 -1.2793 -0.0829  2.0667
 1948WAT     H2 6056   1.288   2.626   3.465 -1.2305 -0.2369 -2.0026
 1949WAT      O 6057   2.759   4.932   1.321 -0.1275  0.2307  0.4816
 1949WAT     H1 6058   2.757   4.991   1.246 -0.2457 -0.0498  0.2591
 1949WAT     H2 6059   2.674   4.945   1.363 -1.1319 -1.4579 -0.9028
 1950WAT      O 6060   2.664   2.154   3.110  0.0925  0.4780  0.2587
 1950WAT     H1 6061   2.619   2.139   3.193  0.1994  2.1073  0.6451
 1950WAT     H2 6062   2.617   2.226   3.069  0.5214  0.2150 -0.7428
 1951WAT      O 6063   0.518   4.093   1.871 -0.0085  0.3181 -0.1106
 1951WAT     H1 6064   0.524   4.115   1.778  1.1977  0.1918 -0.0745
 1951WAT     H2 6065   0.601   4.049   1.891 -0.3136  0.2138  0.9915
 1952WAT      O 6066   4.668   3.441   3.775  0.0235  0.4717 -0.3701
 1952WAT     H1 6067   4.650   3.348   3.787 -2.4607  0.7364 -1.4018
 1952WAT     H2 6068   4.650   3.457   3.682 -0.1164  2.0774 -0.0919
 1953WAT      O 6069   1.927   3.361   1.695 -0.0526  0.0034  0.2091
 1953WAT     H1 6070   1.869   3.432   1.667 -2.1519 -0.8016  2.2273
 1953WAT     H2 6071   1.896   3.284   1.647  0.0309 -0.2196  0.5090
 1954WAT      O 6072   4.920   2.440   3.476  0.1011 -0.0532 -0.0377
 1954WAT     H1 6073   4.965   2.356   3.463  0.2601 -0.3590  2.0666
 1954WAT     H2 6074   4.988   2.506   3.462  0.1691 -0.3025 -0.9299
 1955WAT      O 6075   3.541   1.119   3.700  0.4012  0.5430  0.0886
 1955WAT     H1 6076   3.619   1.174   3.707 -0.2270  1.4936 -0.2389
 1955WAT     H2 6077   3.501   1.144   3.617 -0.2240  0.0355  0.2279
 1956WAT      O 6078   2.619   2.365   4.851 -0.8712  0.5256 -0.2044
 1956WAT     H1 6079   2.624   2.356   4.756 -1.7430  0.4537 -0.2518
 1956WAT     H2 6080   2.549   2.305   4.877  1.1584 -1.5963  0.7937
 1957WAT      O 6081   2.417   2.564   0.877  0.1305 -0.0687  0.4810
 1957WAT     H1 6082   2.508   2.593   0.887 -0.2707  1.5315 -0.2181
 1957WAT     H2 6083   2.414   2.523   0.790 -0.2592  1.9008 -0.4995
 1958WAT      O 6084   2.412   2.472   1.374 -0.3966 -0.8610  0.4532
 1958WAT     H1 6085   2.365   2.449   1.454 -0.6785 -0.8949  0.2794
 1958WAT     H2 6086   2.347   2.463   1.304 -0.8335  1.5369  0.4753
 1959WAT      O 6087   2.385   3.963   1.667 -0.1408  0.1509 -0.3151
 1959WAT     H1 6088   2.402   3.904   1.740  1.9267  1.4062  0.3143
 1959WAT     H2 6089   2.372   4.049   1.708 -0.3785  0.6269 -1.3471
 1960WAT      O 6090   3.728   2.220   3.511 -0.0627 -0.2478 -0.5268
 1960WAT     H1 6091   3.684   2.301   3.484  0.1199 -0.0308 -0.1870
 1960WAT     H2 6092   3.657   2.162   3.539 -0.0598  0.7297  1.7095
 1961WAT      O 6093   1.753   0.034   1.536  0.2488 -0.0361 -0.4596
 1961WAT     H1 6094   1.715  -0.038   1.587  0.3264  0.2487  0.0080
 1961WAT     H2 6095   1.680   0.094   1.521  0.6754  0.9556  1.2154
 1962WAT      O 6096   1.921   0.068   2.675  0.3672  0.2269 -0.0503
 1962WAT     H1 6097   1.985   0.137   2.692  0.3071  0.9317 -2.4066
 1962WAT     H2 6098   1.837   0.108   2.696  0.3710  0.7446 -0.9843
 1963WAT      O 6099   2.862   2.554   1.606  0.3256  0.1855 -0.1980
 1963WAT     H1 6100   2.890   2.474   1.651 -2.2518 -0.6368  0.1146
 1963WAT     H2 6101   2.898   2.545   1.518  2.6715  0.2287  0.6845
 1964WAT      O 6102   3.373   3.103   0.582 -0.1276  0.2562 -0.1649
 1964WAT     H1 6103   3.277   3.108   0.572 -0.5388 -1.8528  1.9069
 1964WAT     H2 6104   3.406   3.123   0.494 -2.5187  0.2388 -1.1671
 1965WAT      O 6105   1.613   1.708   1.397  0.3831  0.4388 -0.3303
 1965WAT     H1 6106   1.662   1.665   1.328 -0.1158  0.8689 -0.9618
 1965WAT     H2 6107   1.639   1.800   1.391 -1.0566  0.8140 -1.1804
 1966WAT      O 6108   3.203   4.385   2.473 -0.0074 -0.2931  0.6512
 1966WAT     H1 6109   3.217   4.476   2.499  1.4752 -0.0066 -0.9441
 1966WAT     H2 6110   3.192   4.338   2.556  0.7812  1.0961  1.5869
 1967WAT      O 6111   3.813   4.347   0.737  0.0774  0.7126  0.0439
 1967WAT     H1 6112   3.873   4.398   0.683  0.8967  0.4187  0.6400
 1967WAT     H2 6113   3.792   4.270   0.684 -1.5611  1.8730 -1.0613
 1968WAT      O 6114   0.712   4.352   1.821 -0.3359 -0.3335  0.0241
 1968WAT     H1 6115   0.643   4.310   1.872  1.7292 -1.4811  2.1042
 1968WAT     H2 6116   0.743   4.423   1.876  1.6571 -1.3123  0.2645
 1969WAT      O 6117   2.386   3.046   4.232  0.0222  0.5456  0.8047
 1969WAT     H1 6118   2.448   3.036   4.160  0.6061 -1.2586  1.4956
 1969WAT     H2 6119   2.418   3.122   4.281  0.7422  0.6076  0.2530
 1970WAT      O 6120   1.552   4.727   1.871 -0.1929  0.0429  0.4152
 1970WAT     H1 6121   1.496   4.653   1.894  0.2557  0.2367  2.3260
 1970WAT     H2 6122   1.615   4.691   1.809 -1.1380 -0.6976 -0.1415
 1971WAT      O 6123   0.988   5.643   3.061  0.2940  0.0897  0.5688
 1971WAT     H1 6124   0.979   5.621   3.153 -1.2552  0.6718  0.5977
 1971WAT     H2 6125   0.899   5.634   3.026  0.7787  0.2666 -0.7756
 1972WAT      O 6126   4.754   0.662   4.186 -0.2829  0.0508  0.3032
 1972WAT     H1 6127   4.824   0.600   4.206  0.8461  1.3537  0.5471
 1972WAT     H2 6128   4.690   0.649   4.256 -0.3663 -1.2628 -0.0071
 1973WAT      O 6129   4.298   3.596   4.509 -0.1063  0.2103 -0.2439
 1973WAT     H1 6130   4.335   3.521   4.556 -1.0146  0.3742  0.7748
 1973WAT     H2 6131   4.309   3.669   4.569 -2.8651  0.0973  0.5582
 1974WAT      O 6132   3.537   2.486   3.648 -0.2936  0.4545 -0.5143
 1974WAT     H1 6133   3.511   2.395   3.657 -0.7958  0.4499 -1.7858
 1974WAT     H2 6134   3.617   2.494   3.700 -0.1612 -0.7444 -0.5199
 1975WAT      O 6135   2.661   1.604   2.507  0.2873 -0.0602  0.0622
 1975WAT     H1 6136   2.575   1.586   2.543  0.1179 -0.3648 -0.4746
 1975WAT     H2 6137   2.687   1.522   2.465  0.3652  0.3525 -0.7133
 1976WAT      O 6138   3.512   5.452   5.004  0.3845 -0.2460 -0.0822
 1976WAT     H1 6139   3.425   5.492   4.998  0.8245  0.9833  1.2714
 1976WAT     H2 6140   3.572   5.526   5.004  1.7353 -1.0750 -3.9614
 1977WAT      O 6141   4.486   4.394   3.174  0.2333 -0.2470 -0.1177
 1977WAT     H1 6142   4.511   4.325   3.112  0.0460 -0.4505  0.0325
 1977WAT     H2 6143   4.443   4.460   3.120  0.6546 -0.1189 -0.3049
 1978WAT      O 6144   1.021   4.437   5.395  0.0878  0.5618  0.1806
 1978WAT     H1 6145   0.973   4.466   5.472 -0.5999 -0.9632  0.3753
 1978WAT     H2 6146   1.025   4.341   5.404  1.0304  0.4579 -1.0750
 1979WAT      O 6147   2.959   0.348   4.882  0.1333  0.4028 -0.2142
 1979WAT     H1 6148   3.040   0.393   4.907  0.6280 -0.1534 -0.7860
 1979WAT     H2 6149   2.904   0.417   4.845  1.0637  0.4842 -1.5226
 1980WAT      O 6150   2.196   0.771   1.740  0.7007  0.0730 -0.1697
 1980WAT     H1 6151   2.183   0.753   1.647 -0.0805 -0.4822  0.0334
 1980WAT     H2 6152   2.290   0.768   1.752  0.8735  1.0151 -1.1074
 1981WAT      O 6153   1.036   1.958   2.501  0.3438  0.1909 -0.5048
 1981WAT     H1 6154   0.999   1.906   2.429  1.1502  0.1652 -0.9071
 1981WAT     H2 6155   1.010   1.911   2.580  2.0913 -1.5414 -0.8909
 1982WAT      O 6156   2.834   0.612   0.839 -0.5727 -0.7262 -0.0156
 1982WAT     H1 6157   2.806   0.665   0.913 -0.1081 -1.4981  0.7283
 1982WAT     H2 6158   2.766   0.545   0.829 -0.9526 -0.2483 -0.6905
 1983WAT      O 6159   1.792   2.078   1.680  0.3598 -0.3530 -0.4810
 1983WAT     H1 6160   1.717   2.092   1.737  0.9100 -1.7048  0.6053
 1983WAT     H2 6161   1.806   2.164   1.638 -0.9724  0.2536  0.2533
 1984WAT      O 6162   3.316   2.368   3.436 -0.2679  0.8245 -0.2949
 1984WAT     H1 6163   3.370   2.396   3.510  0.7688  0.4061 -0.8757
 1984WAT     H2 6164   3.300   2.275   3.452 -1.4089  1.0972  0.2253
 1985WAT      O 6165   3.085   2.125   2.680  0.4996  0.1159  0.3616
 1985WAT     H1 6166   3.030   2.192   2.721  0.0437 -0.6334  0.9965
 1985WAT     H2 6167   3.173   2.164   2.679 -0.1776  1.8379 -1.7650
 1986WAT      O 6168   2.660   1.750   4.398  0.0630  0.4350  0.5593
 1986WAT     H1 6169   2.594   1.753   4.329  1.4585 -0.3578 -0.8922
 1986WAT     H2 6170   2.675   1.842   4.421  1.6147  1.0070 -2.3131
 1987WAT      O 6171   0.532   1.125   4.489 -0.2202  0.4414  0.3168
 1987WAT     H1 6172   0.599   1.119   4.421  0.2807  1.8433  0.6388
 1987WAT     H2 6173   0.540   1.044   4.539 -0.2807 -0.3901 -1.0055
 1988WAT      O 6174   2.023   3.733   2.083  0.6303 -0.0925  0.2378
 1988WAT     H1 6175   2.012   3.642   2.111  2.6424 -0.8225 -1.0679
 1988WAT     H2 6176   2.108   3.759   2.120  0.4534  1.0011 -0.0827
 1989WAT      O 6177   1.759   2.643   5.071 -0.1997 -0.7562  0.2596
 1989WAT     H1 6178   1.738   2.556   5.102 -1.9721 -0.8020 -0.9227
 1989WAT     H2 6179   1.681   2.672   5.024 -0.2218  2.0463  1.7941
 1990WAT      O 6180   1.022   5.269   3.987 -0.1087 -0.1460 -0.2847
 1990WAT     H1 6181   1.116   5.286   3.997 -0.6736  2.5969  1.4582
 1990WAT     H2 6182   1.003   5.200   4.051  1.0573 -2.7002 -2.4901
 1991WAT      O 6183   2.650   3.630   1.773  0.0553 -0.1337  0.1269
 1991WAT     H1 6184   2.583   3.686   1.812  0.6208 -0.4282  1.5839
 1991WAT     H2 6185   2.668   3.564   1.840  1.4026 -0.3836 -0.4398
 1992WAT      O 6186   3.438   2.351   3.152  0.1933 -0.1736  0.7585
 1992WAT     H1 6187   3.357   2.394   3.179  0.0311 -1.1524  1.9500
 1992WAT     H2 6188   3.409   2.271   3.108  0.4941  0.6913 -1.0819
 1993WAT      O 6189   3.253   2.689   3.015 -0.8193 -0.1081 -0.3991
 1993WAT     H1 6190   3.261   2.775   3.055 -1.8156  0.1422 -0.6973
 1993WAT     H2 6191   3.320   2.687   2.947 -0.0070 -0.0274  0.3746
 1994WAT      O 6192   2.708   1.805   3.241 -0.1804  0.2717  0.2882
 1994WAT     H1 6193   2.682   1.766   3.158 -0.9038 -2.0451  1.5001
 1994WAT     H2 6194   2.803   1.806   3.239 -0.1455  2.9471 -1.6533
 1995WAT      O 6195   1.830   4.760   1.994 -0.2277 -0.0977 -0.1644
 1995WAT     H1 6196   1.735   4.755   2.004 -0.2522 -0.4198 -0.5355
 1995WAT     H2 6197   1.843   4.831   1.930 -0.0829  1.7966  1.8462
 1996WAT      O 6198   3.036   4.824   0.903 -0.0009  0.5350 -0.3206
 1996WAT     H1 6199   2.987   4.806   0.983  0.3685  0.1070 -0.1910
 1996WAT     H2 6200   3.032   4.920   0.894 -0.8751  0.5022 -0.3244
 1997WAT      O 6201   1.545   4.940   3.748  0.2062  0.6665 -0.2923
 1997WAT     H1 6202   1.548   4.880   3.673  0.8928  1.1306 -0.6401
 1997WAT     H2 6203   1.461   4.920   3.789 -0.0192  0.1420 -0.9642
 1998WAT      O 6204   3.956   0.399   2.752 -0.2053 -0.4433  0.1299
 1998WAT     H1 6205   4.014   0.432   2.682  1.1065 -0.6107  1.1105
 1998WAT     H2 6206   3.917   0.320   2.715  2.2325 -1.8316  0.3627
 1999WAT      O 6207   3.240   2.438   2.778  0.3744 -0.2371  0.3927
 1999WAT     H1 6208   3.291   2.513   2.807 -0.5714  0.4082  0.4257
 1999WAT     H2 6209   3.163   2.438   2.834 -1.1080  0.5735 -1.5067
 2000WAT      O 6210   3.355   2.151   2.977  1.0562 -0.0492  0.4480
 2000WAT     H1 6211   3.299   2.082   2.942  0.4571  0.6459 -0.0024
 2000WAT     H2 6212   3.411   2.176   2.904  0.3460  0.8554  0.1902
 2001WAT      O 6213   1.777   3.534   3.960 -0.1661  0.1427  0.0299
 2001WAT     H1 6214   1.685   3.558   3.972 -0.5647 -0.6757 -1.2384
 2001WAT     H2 6215   1.814   3.608   3.912 -0.5053 -0.1281 -0.6642
 2002WAT      O 6216   2.984   1.042   2.035 -0.0506  1.0270  0.0227
 2002WAT     H1 6217   2.964   0.975   2.101  1.5337  0.9604  0.4630
 2002WAT     H2 6218   2.983   1.124   2.084  1.4667  0.9435  0.2439
 2003WAT      O 6219   3.212   4.306   4.956 -0.0077 -0.1388 -0.6892
 2003WAT     H1 6220   3.248   4.303   5.045  0.7408  1.5252 -0.9000
 2003WAT     H2 6221   3.130   4.257   4.962  0.7583 -1.3427  0.5533
 2004WAT      O 6222   2.029   1.444   2.569 -0.0287 -0.5118 -0.1838
 2004WAT     H1 6223   1.982   1.406   2.495  0.4158  1.6305 -1.6332
 2004WAT     H2 6224   1.967   1.437   2.642 -1.0574 -1.2703 -1.0952
 2005WAT      O 6225   0.978   1.749   2.706 -0.3160  0.4521  0.4283
 2005WAT     H1 6226   0.894   1.729   2.664  0.4686 -1.0210 -0.5359
 2005WAT     H2 6227   0.978   1.696   2.786 -0.7888  1.3856  1.0633
 2006WAT      O 6228   0.865   1.950   3.951 -0.3092  0.1125  0.3211
 2006WAT     H1 6229   0.777   1.914   3.941  0.3208 -1.4085 -0.0734
 2006WAT     H2 6230   0.913   1.918   3.874  0.9496 -0.2967  1.2335
 2007WAT      O 6231   4.550   3.805   5.115 -0.7274 -0.1987  0.4061
 2007WAT     H1 6232   4.480   3.839   5.171 -0.7865 -0.5460  0.5454
 2007WAT     H2 6233   4.629   3.815   5.168 -1.2290 -4.3388  2.3678
 2008WAT      O 6234   3.096   3.454   3.976 -0.2002  0.2268 -0.0484
 2008WAT     H1 6235   3.143   3.527   4.017 -2.8136  1.4079  1.0781
 2008WAT     H2 6236   3.125   3.455   3.885  3.5501 -0.5943  1.0000
 2009WAT      O 6237   1.956   4.841   1.235 -0.0821  0.4955  0.7664
 2009WAT     H1 6238   1.942   4.902   1.307  0.5765 -0.4618  1.7247
 2009WAT     H2 6239   2.035   4.873   1.191 -0.2731  0.8642  0.6849
 2010WAT      O 6240   2.690   4.579   3.427 -0.1107  0.2105 -0.2351
 2010WAT     H1 6241   2.646   4.649   3.378  0.7010  0.0541 -1.2151
 2010WAT     H2 6242   2.653   4.498   3.392 -0.8019  0.1109  0.6649
 2011WAT      O 6243   4.830   1.143   4.045 -0.1554  0.0674 -0.4169
 2011WAT     H1 6244   4.774   1.120   3.970 -0.1377  0.5382 -0.5782
 2011WAT     H2 6245   4.783   1.109   4.121  0.2922 -1.2934 -0.7093
 2012WAT      O 6246   1.269   1.105   1.720 -0.2277  0.2445  0.1342
 2012WAT     H1 6247   1.298   1.118   1.630 -0.9029  0.8645 -0.0056
 2012WAT     H2 6248   1.210   1.030   1.716 -1.1954  0.9945 -0.1688
 2013WAT      O 6249   2.247   4.147   2.832 -0.5745  0.4066 -0.2922
 2013WAT     H1 6250   2.177   4.102   2.783 -0.6028 -0.2033  0.2860
 2013WAT     H2 6251   2.268   4.087   2.904  0.4576  0.6429 -0.3804
 2014WAT      O 6252   3.345   1.696   3.639  0.1504  0.0624  0.3901
 2014WAT     H1 6253   3.381   1.711   3.727  0.7857 -0.2416  0.1931
 2014WAT     H2 6254   3.360   1.602   3.624  0.5765  0.2300 -0.2681
 2015WAT      O 6255   1.758   4.698   3.350  0.7253  0.3514 -0.2280
 2015WAT     H1 6256   1.727   4.742   3.429  0.0949  0.9469 -0.7869
 2015WAT     H2 6257   1.734   4.606   3.363  1.3131  0.2986  0.5932
 2016WAT      O 6258   0.400   3.750   2.603 -0.2539 -0.0241  0.0847
 2016WAT     H1 6259   0.349   3.820   2.642 -1.9572  0.7495 -3.1400
 2016WAT     H2 6260   0.382   3.673   2.657 -0.7260  1.3561  1.9690
 2017WAT      O 6261   2.685   2.407   1.926  0.3394 -0.2718  0.2983
 2017WAT     H1 6262   2.766   2.428   1.972 -0.7847 -0.6609  2.5737
 2017WAT     H2 6263   2.645   2.492   1.907  0.1174 -0.1140  1.4047
 2018WAT      O 6264   3.823   5.060   1.476  0.5696 -0.0329 -0.1127
 2018WAT     H1 6265   3.834   5.144   1.520  0.6057 -0.3685  0.5320
 2018WAT     H2 6266   3.906   5.015   1.489  0.2403 -0.5294  0.3490
 2019WAT      O 6267   2.835   4.801   2.729 -0.3024  0.6565 -0.3243
 2019WAT     H1 6268   2.902   4.783   2.794 -0.1739  1.1485 -0.3147
 2019WAT     H2 6269   2.787   4.719   2.720  0.5881  0.1503 -0.6641
 2020WAT      O 6270   4.423   1.523   2.277 -0.1191 -0.0969 -0.5630
 2020WAT     H1 6271   4.472   1.443   2.258  0.0846  0.1767 -1.2046
 2020WAT     H2 6272   4.337   1.508   2.239 -0.7347 -0.7940  1.0301
 2021WAT      O 6273   3.015   1.622   2.973 -0.3818  0.0032  0.0509
 2021WAT     H1 6274   3.091   1.598   2.918 -0.7868 -3.5895  0.8018
 2021WAT     H2 6275   2.942   1.626   2.911  0.0057  1.1342 -0.3510
 2022WAT      O 6276   2.617   3.242   2.822  0.3114 -0.5059  0.0236
 2022WAT     H1 6277   2.590   3.151   2.816  0.3349 -0.4495 -1.3538
 2022WAT     H2 6278   2.651   3.263   2.735  4.3719 -0.4012  1.4292
 2023WAT      O 6279   3.124   2.644   0.633  0.0298  0.1502 -0.2641
 2023WAT     H1 6280   3.106   2.575   0.697  0.2100  0.0664 -0.3054
 2023WAT     H2 6281   3.172   2.600   0.563  1.7484  0.6771  0.5351
 2024WAT      O 6282   1.261   3.762   5.370  0.5381  0.0809  0.4645
 2024WAT     H1 6283   1.256   3.841   5.424  1.0916 -0.5779  1.5001
 2024WAT     H2 6284   1.181   3.714   5.390 -0.2369  0.7665 -0.8326
 2025WAT      O 6285   2.038   4.536   4.316  0.1631 -0.6065  0.3153
 2025WAT     H1 6286   2.109   4.487   4.275  0.2140  0.4291 -0.9143
 2025WAT     H2 6287   2.028   4.614   4.261 -0.0397  0.6700  2.0876
 2026WAT      O 6288   3.804   2.567   2.304 -0.7535  0.1353  0.2659
 2026WAT     H1 6289   3.743   2.580   2.231  1.9510  0.0629 -2.2082
 2026WAT     H2 6290   3.803   2.650   2.351 -1.9715  0.4762 -0.3183
 2027WAT      O 6291   2.515   1.735   4.089  0.0032 -0.0992 -0.1872
 2027WAT     H1 6292   2.501   1.817   4.043 -3.1281 -1.4669 -2.0284
 2027WAT     H2 6293   2.605   1.710   4.068  0.4599  2.0007 -0.9596
 2028WAT      O 6294   4.290   0.713   2.594 -0.3023 -0.6222  0.4961
 2028WAT     H1 6295   4.325   0.772   2.661  0.0213  0.3508 -0.4882
 2028WAT     H2 6296   4.251   0.772   2.529  1.6877 -1.3352 -1.4691
 2029WAT      O 6297   1.996   0.906   2.384  0.1839  0.5450  0.5779
 2029WAT     H1 6298   1.960   0.995   2.394  0.0724  0.3800  1.7284
 2029WAT     H2 6299   2.088   0.915   2.408 -0.2562 -0.0025  2.6750
 2030WAT      O 6300   1.339   2.022   3.081  0.4351 -0.0231  0.1128
 2030WAT     H1 6301   1.389   2.075   3.143 -1.2350  1.7299  0.0645
 2030WAT     H2 6302   1.351   2.066   2.996 -1.2583  0.5737  0.1363
 2031WAT      O 6303   2.616   0.809   0.227 -0.4524 -0.1074 -0.0065
 2031WAT     H1 6304   2.592   0.720   0.253  1.5272 -0.6097  0.2727
 2031WAT     H2 6305   2.614   0.859   0.308  1.4375 -0.6627  0.4408
 2032WAT      O 6306   3.408   4.310   0.808 -0.0503  0.1299 -0.3799
 2032WAT     H1 6307   3.462   4.302   0.887 -0.5580  0.1392 -0.0299
 2032WAT     H2 6308   3.465   4.278   0.738  0.1989 -0.4528  0.0740
 2033WAT      O 6309   1.659   0.688   1.577  0.2819  0.6025 -0.3586
 2033WAT     H1 6310   1.744   0.720   1.607  0.3220  0.3889 -0.2392
 2033WAT     H2 6311   1.608   0.767   1.558  0.8852  0.7470 -1.4985
 2034WAT      O 6312   2.711   0.690   3.002 -0.0801 -0.2399  0.0931
 2034WAT     H1 6313   2.754   0.626   3.060 -0.7977 -0.0163  0.8857
 2034WAT     H2 6314   2.749   0.774   3.027  1.4019 -0.4080 -1.4478
 2035WAT      O 6315   2.630   1.994   2.883  0.5104  0.0022  0.9982
 2035WAT     H1 6316   2.649   2.044   2.962 -0.5860  0.1774  1.1640
 2035WAT     H2 6317   2.663   1.906   2.902  0.1943  0.0247  1.6869
 2036WAT      O 6318   1.278   2.506   3.764  0.4650  0.3509 -0.0041
 2036WAT     H1 6319   1.222   2.498   3.841  2.2662  0.8754  1.4172
 2036WAT     H2 6320   1.244   2.439   3.703 -1.4560  0.4399  0.8989
 2037WAT      O 6321   4.353   1.119   2.551 -0.2530 -0.0848  0.1331
 2037WAT     H1 6322   4.406   1.134   2.630  0.5769  0.9650 -0.5813
 2037WAT     H2 6323   4.284   1.060   2.579 -0.9258  1.4830  2.0675
 2038WAT      O 6324   2.765   4.393   1.837 -0.2222 -0.0070 -0.2383
 2038WAT     H1 6325   2.783   4.401   1.931 -0.5807 -0.0553 -0.1646
 2038WAT     H2 6326   2.845   4.424   1.795  0.7759 -1.9788  0.0951
 2039WAT      O 6327   4.793   3.405   2.949  0.2085  0.8878  0.4543
 2039WAT     H1 6328   4.738   3.404   2.871  0.2810  0.2091  0.4077
 2039WAT     H2 6329   4.879   3.378   2.918  0.7581  2.5884  0.4038
 2040WAT      O 6330   0.355   1.869   3.123 -0.0095  0.6140  0.0020
 2040WAT     H1 6331   0.369   1.874   3.029  0.3825  1.1760  0.0833
 2040WAT     H2 6332   0.439   1.840   3.159  0.5225  2.4488  0.3517
 2041WAT      O 6333   1.803   4.100   2.489 -0.0320 -0.4129 -0.4470
 2041WAT     H1 6334   1.747   4.023   2.490 -0.3333 -0.1988 -0.6849
 2041WAT     H2 6335   1.755   4.166   2.539  1.0078 -0.9150  1.3048
 2042WAT      O 6336   3.905   2.323   4.903 -0.0272 -0.4268  0.7933
 2042WAT     H1 6337   3.826   2.313   4.955 -1.2908  1.4732 -0.6326
 2042WAT     H2 6338   3.887   2.397   4.845  2.6919 -0.0966  0.2110
 2043WAT      O 6339   1.812   1.748   1.934  0.5206 -0.1121 -0.3038
 2043WAT     H1 6340   1.888   1.700   1.969  0.9292 -0.9707 -2.2044
 2043WAT     H2 6341   1.756   1.679   1.896 -1.8259  0.3718  1.9947
 2044WAT      O 6342   4.111   0.101   2.585 -0.2473 -0.4600  0.1193
 2044WAT     H1 6343   4.126   0.139   2.498  0.6042  0.3754  0.6085
 2044WAT     H2 6344   4.066   0.170   2.634 -1.5548 -1.2593  0.0868
 2045WAT      O 6345   3.975   4.666   4.436  0.1977  0.0937 -0.2663
 2045WAT     H1 6346   3.964   4.587   4.383  1.0935 -0.8390  0.8485
 2045WAT     H2 6347   4.070   4.678   4.440  0.1551  0.1765  1.0049
 2046WAT      O 6348   4.080   2.037   4.216  0.1262 -0.0135  0.4781
 2046WAT     H1 6349   4.020   2.044   4.142  0.5480  0.4015  0.1731
 2046WAT     H2 6350   4.103   2.127   4.238 -0.8541 -0.0551  1.8338
 2047WAT      O 6351   2.084   3.660   2.760  0.6407  0.4680  0.1860
 2047WAT     H1 6352   2.075   3.573   2.799  2.9537 -0.2107 -0.6222
 2047WAT     H2 6353   2.041   3.652   2.675  1.4029 -0.1179 -0.1606
 2048WAT      O 6354   2.277   2.814   3.377  0.3192  0.1484  0.3202
 2048WAT     H1 6355   2.323   2.752   3.320 -2.1960 -1.6416  0.0490
 2048WAT     H2 6356   2.224   2.867   3.316 -0.9240 -0.4804  0.8250
 2049WAT      O 6357   3.874   2.993   3.974  0.3987 -0.1552 -0.8547
 2049WAT     H1 6358   3.884   2.911   4.021  0.7876 -0.3353 -1.2465
 2049WAT     H2 6359   3.802   2.976   3.913 -0.9295  0.4551  0.4701
 2050WAT      O 6360   1.683   1.577   3.518 -0.3267 -0.1121 -0.1300
 2050WAT     H1 6361   1.757   1.599   3.462  2.7796  1.9286  4.2613
 2050WAT     H2 6362   1.619   1.647   3.503 -0.7082 -0.8734 -2.5816
 2051WAT      O 6363   4.005   1.164   3.758 -0.0403  0.1192  1.0717
 2051WAT     H1 6364   3.916   1.164   3.723 -0.1081  0.4236  1.2355
 2051WAT     H2 6365   4.041   1.079   3.734 -0.2904  0.0928  0.7869
 2052WAT      O 6366   3.629   3.480   1.790 -0.3103 -0.2094  0.0694
 2052WAT     H1 6367   3.614   3.533   1.868  0.1099 -0.4966  0.3524
 2052WAT     H2 6368   3.714   3.439   1.805 -0.3648 -0.5072 -0.4032
 2053WAT      O 6369   2.027   2.562   2.503  0.4038  0.0271 -0.7059
 2053WAT     H1 6370   1.977   2.624   2.555  1.1407  0.6895 -0.7735
 2053WAT     H2 6371   1.978   2.555   2.421  0.6652  1.0360 -0.9600
 2054WAT      O 6372   3.796   3.899   1.942 -0.3346 -0.1792  0.6061
 2054WAT     H1 6373   3.821   3.991   1.937 -2.0664  0.2526 -1.1459
 2054WAT     H2 6374   3.844   3.865   2.018 -0.3691  2.3705  1.8557
 2055WAT      O 6375   2.979   0.746   5.232  0.2343  0.0837  0.0450
 2055WAT     H1 6376   2.920   0.673   5.211 -0.7635  0.5390  1.1755
 2055WAT     H2 6377   2.935   0.823   5.198  0.6766  0.3202 -0.0017
 2056WAT      O 6378   1.209   5.578   3.767  0.1447  0.0823  0.0120
 2056WAT     H1 6379   1.266   5.524   3.822  0.1918 -0.4871 -0.5840
 2056WAT     H2 6380   1.142   5.610   3.827  0.9269  0.5336  0.6658
 2057WAT      O 6381   2.222   0.884   2.696 -0.5012  0.1490  0.1757
 2057WAT     H1 6382   2.257   0.941   2.627  0.5100 -1.4736 -0.6981
 2057WAT     H2 6383   2.272   0.907   2.774  0.0842  0.2901 -0.2348
 2058WAT      O 6384   1.838   2.048   3.393  0.3160  0.3801  0.1241
 2058WAT     H1 6385   1.869   2.033   3.304  0.1197  2.1346 -0.2786
 2058WAT     H2 6386   1.852   2.142   3.408 -1.2879  0.4825  1.2744
 2059WAT      O 6387   1.860   4.714   3.756 -0.2317 -0.3792 -0.3104
 2059WAT     H1 6388   1.887   4.670   3.676 -0.2199  0.5195 -0.8130
 2059WAT     H2 6389   1.780   4.668   3.783  0.4252 -1.4706 -0.1510
 2060WAT      O 6390   4.312   4.769   4.851 -0.3394 -0.1529 -0.1926
 2060WAT     H1 6391   4.233   4.732   4.811 -0.5481  0.6725 -0.5834
 2060WAT     H2 6392   4.383   4.713   4.822 -0.8310 -1.2144  0.5801
 2061WAT      O 6393   2.419   3.545   4.528 -0.0549 -0.6028  0.4906
 2061WAT     H1 6394   2.489   3.579   4.473 -0.3474 -1.0778 -0.1903
 2061WAT     H2 6395   2.391   3.620   4.580  1.7791 -0.6754  1.6878
 2062WAT      O 6396   2.775   5.177   4.484  0.9382  0.1348  0.6486
 2062WAT     H1 6397   2.734   5.211   4.564 -0.7771  0.2940 -0.2440
 2062WAT     H2 6398   2.816   5.254   4.444 -0.4196  0.5987  0.1053
 2063WAT      O 6399   3.186   4.259   4.215  0.2590 -0.0517  0.4094
 2063WAT     H1 6400   3.198   4.351   4.190 -0.7052  0.3852  1.4582
 2063WAT     H2 6401   3.146   4.218   4.139  1.7063  0.1270 -0.4718
 2064WAT      O 6402   4.199   0.206   3.518 -0.3593  0.4869  0.1737
 2064WAT     H1 6403   4.173   0.115   3.504  0.9288 -0.1182  1.5223
 2064WAT     H2 6404   4.116   0.254   3.518 -1.0220 -0.5758 -1.0914
 2065WAT      O 6405   1.023   2.562   4.872  0.1122 -0.2260  0.6322
 2065WAT     H1 6406   1.003   2.470   4.857 -0.8482  0.2845 -1.7245
 2065WAT     H2 6407   0.941   2.607   4.851  1.6262  1.4330 -2.4182
 2066WAT      O 6408   2.985   1.325   2.495 -0.4562  0.1255  0.3465
 2066WAT     H1 6409   3.001   1.266   2.568  0.3059 -3.1120 -2.2262
 2066WAT     H2 6410   3.057   1.388   2.500  1.3348 -1.8356  0.7510
 2067WAT      O 6411   4.790   1.249   2.271 -0.1227 -0.0820  0.4620
 2067WAT     H1 6412   4.754   1.177   2.323  0.8402 -0.5277  0.5332
 2067WAT     H2 6413   4.733   1.255   2.195 -0.6234 -0.4594  0.8043
 2068WAT      O 6414   3.903   3.498   3.120  0.0044 -0.0734  0.3081
 2068WAT     H1 6415   3.882   3.451   3.039  1.5052 -0.7531  0.2748
 2068WAT     H2 6416   3.818   3.515   3.160 -0.7015 -0.8735 -0.7748
 2069WAT      O 6417   4.804   3.196   2.386 -0.0111  0.4003 -0.4518
 2069WAT     H1 6418   4.746   3.180   2.312  0.6539 -0.1442 -0.8608
 2069WAT     H2 6419   4.769   3.276   2.427 -0.1498  0.9301 -1.5753
 2070WAT      O 6420   0.442   0.300   3.209  0.3065  0.6445  0.3871
 2070WAT     H1 6421   0.405   0.388   3.202  0.7157  0.9276  1.5244
 2070WAT     H2 6422   0.412   0.254   3.130  1.3097  2.2411 -0.9953
 2071WAT      O 6423   3.229   0.556   2.252 -0.8873 -0.1970 -0.0116
 2071WAT     H1 6424   3.283   0.631   2.274 -1.5082  0.1546  0.3386
 2071WAT     H2 6425   3.204   0.570   2.160 -0.4331 -0.3363 -0.1588
 2072WAT      O 6426   2.701   4.163   3.265  0.0678 -0.8732  0.3387
 2072WAT     H1 6427   2.755   4.132   3.338  0.7906 -0.8183 -0.1651
 2072WAT     H2 6428   2.662   4.083   3.229  0.2600 -0.9705  0.3481
 2073WAT      O 6429   3.842   3.328   2.915  0.3911  0.7803 -0.1166
 2073WAT     H1 6430   3.891   3.247   2.910  0.3641  0.8052 -0.9548
 2073WAT     H2 6431   3.757   3.303   2.951  0.9956  0.7364  1.3291
 2074WAT      O 6432   2.449   2.993   5.196  0.3888  0.0964  0.5079
 2074WAT     H1 6433   2.377   2.978   5.257  0.5703 -1.1339  0.4466
 2074WAT     H2 6434   2.408   3.032   5.119  0.0597  1.0067  1.1263
 2075WAT      O 6435   3.112   4.468   2.223  0.2814 -0.2688 -0.5265
 2075WAT     H1 6436   3.121   4.444   2.316  0.5274  1.6362 -0.0090
 2075WAT     H2 6437   3.029   4.515   2.219  1.1423  1.2630 -0.8863
 2076WAT      O 6438   4.371   5.202   2.416  0.4408  0.3401  0.4379
 2076WAT     H1 6439   4.289   5.245   2.391 -0.1375 -0.1173  1.4624
 2076WAT     H2 6440   4.428   5.273   2.444 -0.4010  0.5011  1.8355
 2077WAT      O 6441   2.110   3.411   2.908 -0.3004 -0.7873 -0.3208
 2077WAT     H1 6442   2.194   3.375   2.936  0.4112  0.9652 -0.0537
 2077WAT     H2 6443   2.050   3.336   2.909  1.5847 -2.4182 -2.0964
 2078WAT      O 6444   2.661   5.530   3.413 -0.4590  0.5903  0.5523
 2078WAT     H1 6445   2.654   5.622   3.390 -2.7297  1.1519  2.9870
 2078WAT     H2 6446   2.661   5.484   3.329 -0.2454  2.7383 -0.6893
 2079WAT      O 6447   4.614   0.355   2.121  0.2679  1.2955  0.3435
 2079WAT     H1 6448   4.694   0.376   2.072  0.2018  2.5256  0.7329
 2079WAT     H2 6449   4.643   0.289   2.185  1.0542  1.9327  0.6700
 2080WAT      O 6450   3.697   0.303   1.203 -0.3768 -0.2249 -0.4370
 2080WAT     H1 6451   3.697   0.207   1.195 -0.9159 -0.2024 -0.8068
 2080WAT     H2 6452   3.635   0.332   1.135 -1.8851  0.2511  1.0695
 2081WAT      O 6453   1.008   2.237   4.819 -0.1540  0.0877 -0.3734
 2081WAT     H1 6454   0.965   2.239   4.733  1.1097 -1.3750 -1.0920
 2081WAT     H2 6455   1.018   2.143   4.839  1.4185  0.3834  0.3927
 2082WAT      O 6456   2.729   1.839   1.234 -0.3344  0.5315 -0.2330
 2082WAT     H1 6457   2.783   1.762   1.252 -3.6818 -2.1655 -0.4841
 2082WAT     H2 6458   2.701   1.869   1.321  0.9828  1.5674 -0.1341
 2083WAT      O 6459   1.687   1.827   1.659 -0.0719 -0.1966 -0.6723
 2083WAT     H1 6460   1.592   1.821   1.669 -0.2316 -1.4650 -2.5649
 2083WAT     H2 6461   1.706   1.921   1.663 -1.0453 -0.0114  2.1501
 2084WAT      O 6462   0.393   2.518   3.652 -0.1763 -0.3385  0.3232
 2084WAT     H1 6463   0.357   2.429   3.655 -0.8363 -0.0635  2.2875
 2084WAT     H2 6464   0.316   2.574   3.647  0.2590  0.1597 -1.8823
 2085WAT      O 6465   3.599   2.768   0.926 -0.1874 -0.2109  0.1999
 2085WAT     H1 6466   3.560   2.810   0.849  1.0802  1.3238  0.3368
 2085WAT     H2 6467   3.689   2.749   0.899 -0.4225 -1.8936  0.5258
 2086WAT      O 6468   2.095   4.024   0.295 -0.1445 -0.1155  0.5809
 2086WAT     H1 6469   2.028   3.959   0.272 -0.1042 -0.8180  2.2490
 2086WAT     H2 6470   2.152   4.030   0.219 -1.6008 -0.1466 -0.5519
 2087WAT      O 6471   1.959   2.680   5.499  0.6705  0.5488  0.0762
 2087WAT     H1 6472   1.893   2.678   5.568  0.6948 -0.6640  0.0880
 2087WAT     H2 6473   1.948   2.597   5.453  0.7368  1.2864 -1.3229
 2088WAT      O 6474   2.249   1.032   0.911 -0.2086  0.6469  0.0838
 2088WAT     H1 6475   2.190   0.960   0.888 -1.3798  1.0260  1.7221
 2088WAT     H2 6476   2.259   1.082   0.830 -0.0146 -0.8903 -0.8762
 2089WAT      O 6477   0.424   5.049   3.005  0.4817 -0.0836 -0.3814
 2089WAT     H1 6478   0.503   5.006   3.037 -0.8043 -1.5296  1.0667
 2089WAT     H2 6479   0.419   5.026   2.913  1.3293 -0.6299 -0.2963
 2090WAT      O 6480   2.232   3.181   5.839  0.3863  0.1939 -0.4402
 2090WAT     H1 6481   2.229   3.268   5.800 -1.6526  0.2822 -0.1899
 2090WAT     H2 6482   2.178   3.127   5.781 -1.1814 -0.0889  1.1825
 2091WAT      O 6483   1.822   2.081   2.636  0.0643 -0.0300  0.4459
 2091WAT     H1 6484   1.916   2.082   2.652 -0.1444  1.1294  1.7710
 2091WAT     H2 6485   1.786   2.030   2.709 -0.4374  0.6578  0.6904
 2092WAT      O 6486   2.674   1.448   1.195 -0.0462  0.1938 -0.4829
 2092WAT     H1 6487   2.692   1.512   1.126  2.7910 -0.0268 -0.0751
 2092WAT     H2 6488   2.716   1.485   1.273 -0.8740 -0.8342  0.4844
 2093WAT      O 6489   3.992   4.744   2.515 -0.0967  0.2896  0.1493
 2093WAT     H1 6490   3.952   4.753   2.602  0.5153  0.0208  0.4608
 2093WAT     H2 6491   3.956   4.817   2.465  0.7224  1.3621  1.0837
 2094WAT      O 6492   1.819   2.027   0.403 -0.1584  0.8872 -0.1164
 2094WAT     H1 6493   1.834   1.934   0.422 -2.3619  0.5160  0.0382
 2094WAT     H2 6494   1.829   2.033   0.308  0.5594  0.6263 -0.0670
 2095WAT      O 6495   1.702   5.282   1.314 -0.1356  0.2399  0.3592
 2095WAT     H1 6496   1.688   5.257   1.405 -3.0598 -2.3114 -0.6563
 2095WAT     H2 6497   1.720   5.200   1.268 -1.7541  1.0240 -1.8373
 2096WAT      O 6498   2.876   4.873   2.203  0.0280  0.1684 -0.2917
 2096WAT     H1 6499   2.900   4.961   2.175  0.6271  0.4711  1.0952
 2096WAT     H2 6500   2.806   4.885   2.266 -0.0406 -0.3661 -0.2578
 2097WAT      O 6501   3.208   1.454   0.827  0.0279 -0.7640 -0.3204
 2097WAT     H1 6502   3.169   1.505   0.756  1.2764  0.6375 -0.0603
 2097WAT     H2 6503   3.151   1.470   0.902 -1.3353 -2.3034 -0.9710
 2098WAT      O 6504   1.495   0.154   1.785 -0.6211 -0.5619  0.2922
 2098WAT     H1 6505   1.508   0.079   1.727 -2.5384 -0.7570  0.0450
 2098WAT     H2 6506   1.583   0.176   1.816  0.3116 -1.2861 -1.6411
 2099WAT      O 6507   2.586   2.970   2.714  0.2582  0.5006  0.2802
 2099WAT     H1 6508   2.633   2.889   2.694  1.3386  0.8394  1.3956
 2099WAT     H2 6509   2.526   2.946   2.785 -1.1585  0.1257 -0.9843
 2100WAT      O 6510   2.304   3.110   1.880 -0.1430  0.1751 -0.0699
 2100WAT     H1 6511   2.235   3.176   1.883  0.4197  0.8214 -0.9732
 2100WAT     H2 6512   2.384   3.157   1.905  0.3603 -0.0123 -1.2882
 2101WAT      O 6513   1.270   3.434   3.121  0.4096 -0.5114 -0.5131
 2101WAT     H1 6514   1.331   3.409   3.190  0.8510  0.6226 -0.4719
 2101WAT     H2 6515   1.183   3.422   3.159  0.5718 -2.0025 -0.5226
 2102WAT      O 6516   4.879   0.470   3.747 -0.0989 -0.5055 -0.0434
 2102WAT     H1 6517   4.807   0.418   3.784 -1.1182 -0.1206 -1.4193
 2102WAT     H2 6518   4.927   0.408   3.692  1.7434 -1.2195  2.1746
 2103WAT      O 6519   2.789   4.658   4.487  0.1124  0.0946 -0.2646
 2103WAT     H1 6520   2.842   4.653   4.407 -1.9476  0.7580 -1.7569
 2103WAT     H2 6521   2.798   4.748   4.516  0.6936 -0.0918  0.1464
 2104WAT      O 6522   0.785   5.028   1.906 -0.5754 -0.3438 -0.5594
 2104WAT     H1 6523   0.827   5.038   1.992 -0.4674 -1.2468 -0.4945
 2104WAT     H2 6524   0.830   5.091   1.850 -0.4221  0.0238 -0.0317
 2105WAT      O 6525   3.323   5.230   0.183 -0.0091  0.3011 -0.2010
 2105WAT     H1 6526   3.378   5.170   0.134  1.1370  0.7646  0.4641
 2105WAT     H2 6527   3.266   5.270   0.118  1.7786  1.2418 -1.2775
 2106WAT      O 6528   1.493   2.623   1.936  0.4898 -0.1127 -0.3015
 2106WAT     H1 6529   1.417   2.590   1.983  0.7058 -0.4203 -0.1692
 2106WAT     H2 6530   1.553   2.549   1.932  1.1059  0.3574  0.2758
 2107WAT      O 6531   4.860   1.987   4.026  0.9252 -0.8400  0.2014
 2107WAT     H1 6532   4.875   1.919   3.960  0.6537 -1.4667  0.7777
 2107WAT     H2 6533   4.817   2.058   3.978  1.4059 -0.9727 -0.4532
 2108WAT      O 6534   3.610   2.978   2.695 -0.7151 -0.2565 -1.0585
 2108WAT     H1 6535   3.538   3.024   2.652 -1.2556  0.1246  0.2230
 2108WAT     H2 6536   3.628   3.029   2.774  1.2318 -0.1374 -1.5395
 2109WAT      O 6537   2.396   3.678   0.953 -0.4635  0.1106  0.4571
 2109WAT     H1 6538   2.460   3.747   0.933  0.6788 -1.1347 -0.3579
 2109WAT     H2 6539   2.443   3.618   1.011 -1.2741 -0.2552  0.7506
 2110WAT      O 6540   2.323   4.053   5.242 -0.1615 -0.5719 -0.2953
 2110WAT     H1 6541   2.294   3.962   5.238  0.4661 -0.7639 -0.6069
 2110WAT     H2 6542   2.250   4.100   5.282 -1.0069 -0.9989 -1.3062
 2111WAT      O 6543   4.497   2.397   2.346 -0.2782 -0.1061 -0.2280
 2111WAT     H1 6544   4.436   2.470   2.350 -1.2513 -0.7447 -2.0951
 2111WAT     H2 6545   4.574   2.432   2.301 -0.7612 -0.1936 -1.1616
 2112WAT      O 6546   1.995   4.320   1.865 -0.0301  0.2390  0.2685
 2112WAT     H1 6547   2.035   4.406   1.858 -0.6190  0.5946  1.2137
 2112WAT     H2 6548   2.064   4.265   1.903  0.5508  0.1224 -0.8887
 2113WAT      O 6549   3.824   3.736   2.193  0.1002  0.0528 -0.7781
 2113WAT     H1 6550   3.908   3.748   2.237 -0.1982  0.3938 -0.2934
 2113WAT     H2 6551   3.765   3.705   2.262  0.0578 -1.1248 -1.3156
 2114WAT      O 6552   2.679   0.499   0.539  0.1638 -0.0468  0.2083
 2114WAT     H1 6553   2.602   0.478   0.486  0.7710 -0.3610 -0.5667
 2114WAT     H2 6554   2.643   0.531   0.622 -0.8495  2.0544 -0.9503
 2115WAT      O 6555   3.245   4.618   4.506 -0.4289 -0.0121  0.2824
 2115WAT     H1 6556   3.211   4.619   4.596  0.0660 -2.5023  0.5846
 2115WAT     H2 6557   3.287   4.532   4.498  1.3988  0.9744 -1.6763
 2116WAT      O 6558   4.515   3.282   2.183 -0.7137  0.8449  0.2051
 2116WAT     H1 6559   4.511   3.187   2.185  0.1063  0.8074  0.9422
 2116WAT     H2 6560   4.430   3.310   2.218 -0.2941  0.3478  1.6944
 2117WAT      O 6561   2.318   2.731   0.627  0.1273 -0.2120  0.5051
 2117WAT     H1 6562   2.346   2.822   0.639 -2.7424  0.6219  1.6977
 2117WAT     H2 6563   2.223   2.736   0.621 -0.2487 -3.2577  2.1533
 2118WAT      O 6564   1.339   3.180   1.602  0.6039  0.0218  0.3910
 2118WAT     H1 6565   1.364   3.270   1.581 -0.3426 -0.0748 -1.3350
 2118WAT     H2 6566   1.421   3.131   1.599  0.9734  0.6355  0.1966
 2119WAT      O 6567   3.711   2.970   5.173 -0.3452  0.5918 -0.1423
 2119WAT     H1 6568   3.790   2.990   5.122 -1.0894 -1.4066 -2.2960
 2119WAT     H2 6569   3.641   2.972   5.108 -1.4950 -1.2373  0.9707
 2120WAT      O 6570   1.478   3.395   0.793  0.1490  0.0233  0.3249
 2120WAT     H1 6571   1.432   3.479   0.799  0.3660  0.4401 -2.6870
 2120WAT     H2 6572   1.568   3.419   0.770  0.0761 -1.0283 -1.1227
 2121WAT      O 6573   1.638   1.039   0.763 -0.1970 -0.2559 -0.1387
 2121WAT     H1 6574   1.671   1.075   0.845  1.5091 -0.8462 -0.5350
 2121WAT     H2 6575   1.618   0.948   0.783  0.3008 -0.4234 -0.3880
 2122WAT      O 6576   1.473   2.946   3.694 -0.3783  0.2528 -0.0889
 2122WAT     H1 6577   1.448   2.857   3.669 -1.0706  0.1231  0.9860
 2122WAT     H2 6578   1.556   2.935   3.741 -1.7999 -0.2164  2.4711
 2123WAT      O 6579   2.997   3.473   1.224  0.3170 -0.2623  0.2841
 2123WAT     H1 6580   2.948   3.421   1.288 -0.0764 -1.5423 -1.0135
 2123WAT     H2 6581   3.048   3.409   1.175 -0.4445  0.4857 -1.5866
 2124WAT      O 6582   2.898   1.435   0.319  0.1558  0.1863  0.2122
 2124WAT     H1 6583   2.986   1.398   0.310  0.2328  0.8496 -2.6793
 2124WAT     H2 6584   2.844   1.386   0.257 -1.6615 -0.3890  2.1092
 2125WAT      O 6585   2.029   4.080   0.898 -0.5864  0.1085 -0.6137
 2125WAT     H1 6586   2.095   4.012   0.887 -0.9273 -0.2815 -0.2541
 2125WAT     H2 6587   2.064   4.137   0.966 -0.8029 -0.3266 -0.1332
 2126WAT      O 6588   2.131   5.611   3.774 -0.2466 -0.1315 -0.3079
 2126WAT     H1 6589   2.141   5.542   3.840  0.6740  0.0560 -0.2358
 2126WAT     H2 6590   2.218   5.621   3.736 -0.6830  0.0292 -1.3034
 2127WAT      O 6591   3.444   3.924   1.351 -0.7809  0.1756 -0.5290
 2127WAT     H1 6592   3.498   3.854   1.388 -2.6217  0.7929  4.0253
 2127WAT     H2 6593   3.362   3.881   1.326 -1.0994  0.3405  0.2005
 2128WAT      O 6594   2.545   2.364   5.691  0.1860 -0.5374 -0.5615
 2128WAT     H1 6595   2.504   2.278   5.684  1.8309 -1.3164 -0.9806
 2128WAT     H2 6596   2.581   2.381   5.604 -0.6375  0.8650 -0.6520
 2129WAT      O 6597   2.645   2.748   2.592 -0.5092 -0.1027 -0.1060
 2129WAT     H1 6598   2.557   2.715   2.610 -0.3369 -0.2507  0.4845
 2129WAT     H2 6599   2.688   2.677   2.545 -0.3856 -0.4342  0.4928
 2130WAT      O 6600   3.386   1.536   4.881  0.2362 -0.1551 -0.0570
 2130WAT     H1 6601   3.421   1.626   4.885  0.1396 -0.1016 -0.3804
 2130WAT     H2 6602   3.464   1.481   4.871  0.3078 -0.1220  0.2856
 2131WAT      O 6603   4.085   2.576   3.051 -0.0629  0.0279 -0.6845
 2131WAT     H1 6604   4.144   2.564   3.126  0.8506  1.4294 -1.1514
 2131WAT     H2 6605   4.134   2.542   2.976 -0.3941 -0.0475 -0.8689
 2132WAT      O 6606   1.467   3.819   1.929  0.7160  0.3995  0.1403
 2132WAT     H1 6607   1.525   3.891   1.953  0.2969  1.1889 -1.1029
 2132WAT     H2 6608   1.526   3.751   1.897  1.0095  1.2165 -1.1606
 2133WAT      O 6609   0.661   2.891   3.936  0.2881  0.0100 -0.3729
 2133WAT     H1 6610   0.672   2.800   3.963  1.7639  0.4005  0.4521
 2133WAT     H2 6611   0.617   2.886   3.852  0.0559 -1.4553 -0.1815
 2134WAT      O 6612   1.941   3.625   4.860  0.1083  0.1116 -0.0821
 2134WAT     H1 6613   2.011   3.666   4.910 -0.5073 -0.3177  1.1673
 2134WAT     H2 6614   1.987   3.576   4.791  1.0901 -0.6568  1.0678
 2135WAT      O 6615   2.785   4.810   0.277  0.2866  0.0975 -0.6304
 2135WAT     H1 6616   2.758   4.855   0.197  0.4035  0.2664 -0.5775
 2135WAT     H2 6617   2.825   4.729   0.247 -0.5751 -0.3170 -0.6926
 2136WAT      O 6618   2.403   3.429   0.097  0.2412  0.6304 -0.3720
 2136WAT     H1 6619   2.448   3.497   0.146 -1.0347  1.8160 -0.7856
 2136WAT     H2 6620   2.385   3.469   0.011  0.1830 -0.5014 -0.9060
 2137WAT      O 6621   3.228   2.913   3.150  0.5330  0.0918 -0.2482
 2137WAT     H1 6622   3.186   2.995   3.126  1.7271  0.2325 -2.0408
 2137WAT     H2 6623   3.310   2.941   3.193 -0.4921 -0.1879  2.0498
 2138WAT      O 6624   0.189   3.169   4.361  0.1227 -0.1429  0.1749
 2138WAT     H1 6625   0.181   3.074   4.370 -1.8951  0.0756  1.1483
 2138WAT     H2 6626   0.105   3.197   4.325  1.0724  1.1839 -1.1170
 2139WAT      O 6627   3.071   3.804   0.940 -0.0040  0.1906 -0.3438
 2139WAT     H1 6628   3.035   3.715   0.948 -0.5230  0.3294 -0.9842
 2139WAT     H2 6629   3.164   3.794   0.957  0.0982 -0.6311 -1.2644
 2140WAT      O 6630   1.687   1.967   3.101  0.0453  0.4021  0.5503
 2140WAT     H1 6631   1.651   1.894   3.152 -2.1548 -1.1351 -2.8410
 2140WAT     H2 6632   1.644   2.044   3.136 -3.5879 -0.9100 -0.5639
 2141WAT      O 6633   1.518   1.289   1.751  0.2140  0.1911  0.3912
 2141WAT     H1 6634   1.464   1.316   1.825 -1.3269 -0.5261 -0.4096
 2141WAT     H2 6635   1.572   1.218   1.785  0.5206  0.7857  1.1666
 2142WAT      O 6636   2.688   2.773   4.305 -0.0848  0.0170  0.7605
 2142WAT     H1 6637   2.680   2.678   4.295 -0.8831  0.2810 -2.3216
 2142WAT     H2 6638   2.779   2.787   4.329  1.5048 -1.4274 -3.4938
 2143WAT      O 6639   2.195   0.639   0.695  0.0701 -0.2585 -0.4317
 2143WAT     H1 6640   2.157   0.577   0.757  1.2530 -1.0482 -0.4574
 2143WAT     H2 6641   2.190   0.724   0.738  0.9259 -0.8023  0.7805
 2144WAT      O 6642   1.916   3.493   4.218 -0.3905 -0.2175 -0.3285
 2144WAT     H1 6643   1.846   3.539   4.265 -0.0386 -1.4773  1.5724
 2144WAT     H2 6644   1.881   3.476   4.131 -1.5954  1.0794 -0.1201
 2145WAT      O 6645   0.661   3.704   2.882 -0.4937  0.3549  0.4496
 2145WAT     H1 6646   0.626   3.788   2.911 -0.1489 -0.0052  2.0146
 2145WAT     H2 6647   0.756   3.719   2.875 -0.2409 -0.2324  2.1228
 2146WAT      O 6648   3.079   0.802   1.059 -0.4857 -0.7685 -0.0548
 2146WAT     H1 6649   3.096   0.783   1.151  0.8141  0.1014 -0.0742
 2146WAT     H2 6650   2.994   0.846   1.058  0.2126  0.6965  0.9650
 2147WAT      O 6651   3.907   4.564   3.304 -0.0902  0.6468  0.0521
 2147WAT     H1 6652   3.992   4.608   3.305  1.3658 -1.8701  2.5066
 2147WAT     H2 6653   3.878   4.569   3.395 -1.0667 -1.1468 -0.1262
 2148WAT      O 6654   0.031   3.863   2.553  0.2140 -0.3656 -0.3749
 2148WAT     H1 6655   0.034   3.915   2.473 -1.4300  0.4054  0.0229
 2148WAT     H2 6656   0.079   3.783   2.531 -1.9886 -1.1347 -2.8838
 2149WAT      O 6657   2.376   4.515   3.425 -0.0397 -0.2437  0.1507
 2149WAT     H1 6658   2.306   4.548   3.369 -1.1853 -0.6068  1.3053
 2149WAT     H2 6659   2.448   4.497   3.366 -0.8801  0.2570 -1.0700
 2150WAT      O 6660   3.352   4.563   0.888  0.1137 -0.1552 -0.6205
 2150WAT     H1 6661   3.344   4.470   0.865  1.4392 -1.0043  1.9628
 2150WAT     H2 6662   3.429   4.593   0.841  0.5941 -0.8102 -0.2646
 2151WAT      O 6663   2.357   2.375   3.277  0.0519  0.1692 -0.3882
 2151WAT     H1 6664   2.326   2.336   3.359  0.2244  0.1141 -0.3496
 2151WAT     H2 6665   2.415   2.446   3.305 -1.0351  1.1100 -0.4394
 2152WAT      O 6666   2.072   3.382   3.222  0.0272 -0.1897  0.1675
 2152WAT     H1 6667   2.167   3.375   3.215  0.0137  0.3969 -0.7663
 2152WAT     H2 6668   2.056   3.400   3.315  0.7259 -1.5498  0.5919
 2153WAT      O 6669   1.153   3.117   1.403 -0.6373 -0.2531 -0.4579
 2153WAT     H1 6670   1.088   3.179   1.437 -0.1376 -0.7567  1.5971
 2153WAT     H2 6671   1.215   3.106   1.476 -0.0366 -2.2221 -1.2063
 2154WAT      O 6672   2.060   2.743   2.097  0.2071 -0.1842  0.6018
 2154WAT     H1 6673   2.021   2.791   2.023 -1.7899 -0.9530  1.1014
 2154WAT     H2 6674   2.073   2.810   2.164 -2.0952 -0.1500  1.1121
 2155WAT      O 6675   1.620   2.555   0.825  0.0391 -0.2473 -0.2598
 2155WAT     H1 6676   1.609   2.545   0.919  0.8135 -1.4049 -0.2735
 2155WAT     H2 6677   1.542   2.603   0.796 -1.3986 -1.9654  0.6204
 2156WAT      O 6678   3.240   5.408   5.807 -0.1123 -0.3724 -0.4004
 2156WAT     H1 6679   3.163   5.460   5.788 -0.7148 -1.3829 -0.8147
 2156WAT     H2 6680   3.286   5.402   5.723  0.2223 -0.0911 -0.2403
 2157WAT      O 6681   2.241   4.346   1.464  0.5515 -0.2211  0.3323
 2157WAT     H1 6682   2.145   4.341   1.461  0.4190  0.8111  1.8459
 2157WAT     H2 6683   2.260   4.439   1.465  1.6587 -0.3962 -1.0584
 2158WAT      O 6684   4.451   3.523   2.041  0.5284  0.3678 -0.5056
 2158WAT     H1 6685   4.493   3.443   2.070 -1.3144 -0.4898 -0.0861
 2158WAT     H2 6686   4.364   3.496   2.011 -1.9789  2.6555  3.7599
 2159WAT      O 6687   2.125   0.397   2.983  0.0184 -0.2865 -0.5280
 2159WAT     H1 6688   2.167   0.467   3.033 -1.8877  0.7919 -0.3238
 2159WAT     H2 6689   2.094   0.336   3.049 -3.3000  1.5846 -0.1182
 2160WAT      O 6690   2.036   5.029   0.643  0.4750 -0.4125 -0.3392
 2160WAT     H1 6691   2.003   4.955   0.592  0.0991 -0.5648  0.1133
 2160WAT     H2 6692   1.957   5.076   0.669  0.7051  0.0515 -0.4827
 2161WAT      O 6693   2.425   3.826   1.927  0.2130 -0.6042  0.5801
 2161WAT     H1 6694   2.359   3.766   1.892 -0.2842  0.1914  0.1262
 2161WAT     H2 6695   2.379   3.876   1.994  0.2779  0.1217  0.0955
 2162WAT      O 6696   2.567   3.890   0.943  0.0915 -0.2363  0.2095
 2162WAT     H1 6697   2.628   3.926   0.879 -0.9827 -0.1807 -0.8317
 2162WAT     H2 6698   2.518   3.966   0.975 -0.2836 -0.4222  0.0863
 2163WAT      O 6699   4.447   2.341   4.488  0.2556  0.0819  0.2689
 2163WAT     H1 6700   4.408   2.291   4.560 -1.4663 -0.2754 -0.8356
 2163WAT     H2 6701   4.477   2.422   4.528  0.0447 -0.4428  1.5180
 2164WAT      O 6702   1.302   2.675   0.971 -0.1939  0.0383 -0.4403
 2164WAT     H1 6703   1.206   2.684   0.976 -0.4526 -1.4222 -1.8279
 2164WAT     H2 6704   1.321   2.594   1.017  0.5724  0.9756  0.9682
 2165WAT      O 6705   2.906   3.272   4.067  0.6457 -0.1911  0.0780
 2165WAT     H1 6706   2.979   3.328   4.040 -2.1060  2.8228 -1.9638
 2165WAT     H2 6707   2.869   3.240   3.984  0.2622 -2.6289  1.1040
 2166WAT      O 6708   0.523   4.169   5.275 -0.4726 -0.1609  0.1573
 2166WAT     H1 6709   0.569   4.194   5.355  0.4550  0.2325 -0.4867
 2166WAT     H2 6710   0.523   4.249   5.222  2.5383 -1.4113 -1.9597
 2167WAT      O 6711   0.703   1.755   2.931  0.7296 -0.0579 -0.2695
 2167WAT     H1 6712   0.735   1.730   3.018  0.5954  1.9259  0.3930
 2167WAT     H2 6713   0.665   1.674   2.895  0.3886 -0.8175  1.6843
 2168WAT      O 6714   2.748   3.534   2.011 -0.4087  0.4042 -0.0197
 2168WAT     H1 6715   2.836   3.568   2.024 -0.0809 -0.5724  0.4512
 2168WAT     H2 6716   2.699   3.563   2.087 -0.1206 -0.1738  0.3989
 2169WAT      O 6717   3.205   1.165   1.329 -0.0206 -0.1535 -0.3369
 2169WAT     H1 6718   3.236   1.137   1.415 -0.5699  0.3749  0.0472
 2169WAT     H2 6719   3.275   1.141   1.269  0.4827 -0.3015  0.2966
 2170WAT      O 6720   1.426   4.531   2.712 -0.5023 -0.1648  0.0769
 2170WAT     H1 6721   1.515   4.506   2.737 -1.2431 -1.6510  1.3373
 2170WAT     H2 6722   1.415   4.619   2.749  0.6826  0.3941 -0.8034
 2171WAT      O 6723   3.722   2.999   2.017  0.1518 -0.1900 -0.0788
 2171WAT     H1 6724   3.792   3.040   1.966  1.5790 -2.6709 -0.2509
 2171WAT     H2 6725   3.733   2.905   2.002 -0.8746 -0.8928  2.9087
 2172WAT      O 6726   1.180   3.248   1.818  0.4650 -0.2394  0.2097
 2172WAT     H1 6727   1.207   3.189   1.747  0.4069 -2.1123  1.6736
 2172WAT     H2 6728   1.263   3.282   1.852  0.4898  0.7599 -0.7784
 2173WAT      O 6729   3.369   3.320   4.433 -0.2135  0.3748 -0.1504
 2173WAT     H1 6730   3.333   3.358   4.353 -0.1079  0.8350  0.0141
 2173WAT     H2 6731   3.295   3.276   4.474 -0.0325 -0.7648 -1.0209
 2174WAT      O 6732   2.038   3.900   5.484 -0.4892 -0.1947 -0.2985
 2174WAT     H1 6733   2.052   3.917   5.578  4.0088 -1.0342 -0.5852
 2174WAT     H2 6734   2.073   3.977   5.441 -1.4485 -0.3313 -1.3568
 2175WAT      O 6735   2.184   3.438   1.616 -0.2800  0.2734 -0.0864
 2175WAT     H1 6736   2.091   3.440   1.594 -0.1314  2.1427 -0.6761
 2175WAT     H2 6737   2.207   3.345   1.614 -2.0647 -0.1977 -0.1708
 2176WAT      O 6738   3.057   4.862   3.857  0.4216 -0.4268  0.4317
 2176WAT     H1 6739   3.053   4.842   3.951  1.3835 -1.3259  0.3090
 2176WAT     H2 6740   2.980   4.817   3.820 -1.3188  1.8745  1.0581
 2177WAT      O 6741   1.424   1.967   0.776  0.4438  0.5647  0.4362
 2177WAT     H1 6742   1.360   1.946   0.708 -1.3972  0.1210  2.1796
 2177WAT     H2 6743   1.464   2.049   0.748 -1.0390  0.9576 -0.6712
 2178WAT      O 6744   3.638   0.694   1.282  0.1840  0.3648 -0.0625
 2178WAT     H1 6745   3.649   0.789   1.290 -1.6170  0.9243 -2.8713
 2178WAT     H2 6746   3.561   0.684   1.226  1.5021 -2.7361 -1.5120
 2179WAT      O 6747   4.020   1.890   3.821 -0.7180  0.1520 -0.0477
 2179WAT     H1 6748   3.971   1.889   3.904 -1.0213 -0.8414 -0.2185
 2179WAT     H2 6749   3.982   1.818   3.771  1.2974 -1.0367  0.0388
 2180WAT      O 6750   2.542   3.654   2.164  0.9220  0.3109 -0.4043
 2180WAT     H1 6751   2.473   3.692   2.110  1.7607  0.8380 -1.1487
 2180WAT     H2 6752   2.574   3.727   2.217 -0.4487 -0.3802  1.4745
 2181WAT      O 6753   3.632   0.924   2.212 -0.5916 -0.4569  0.4546
 2181WAT     H1 6754   3.695   0.883   2.153 -0.7199 -1.2298  0.8457
 2181WAT     H2 6755   3.687   0.971   2.275 -0.4415 -0.1165  0.0736
 2182WAT      O 6756   2.782   2.311   0.677  0.4234 -0.2825  0.5605
 2182WAT     H1 6757   2.837   2.282   0.749 -1.7851 -1.4170  1.8660
 2182WAT     H2 6758   2.698   2.333   0.717  0.3933  3.3787 -1.0368
 2183WAT      O 6759   1.799   0.019   0.608 -0.2666 -0.4104 -0.1628
 2183WAT     H1 6760   1.798   0.025   0.513 -1.7235 -0.8863 -0.1971
 2183WAT     H2 6761   1.892   0.005   0.630  0.0349 -0.6925 -1.5201
 2184WAT      O 6762   2.780   0.952   5.382 -0.0561 -0.0754 -0.6848
 2184WAT     H1 6763   2.761   1.025   5.441  0.5188 -0.5804  0.1459
 2184WAT     H2 6764   2.774   0.874   5.437  1.8021 -0.4636 -0.9428
 2185WAT      O 6765   1.416   1.941   1.653  0.3470  0.3276  0.1704
 2185WAT     H1 6766   1.353   1.876   1.683  1.3088 -0.5505  0.3321
 2185WAT     H2 6767   1.411   1.936   1.557  0.7564 -0.3453  0.1754
 2186WAT      O 6768   1.678   3.696   1.830  0.1359 -0.1258  0.5216
 2186WAT     H1 6769   1.764   3.732   1.851 -1.2481  4.3525 -0.3349
 2186WAT     H2 6770   1.671   3.701   1.735 -0.7546 -1.2636  0.5028
 2187WAT      O 6771   3.023   4.060   5.834 -0.5485 -0.0241 -0.4337
 2187WAT     H1 6772   2.933   4.055   5.803 -0.6230 -1.8260 -0.0184
 2187WAT     H2 6773   3.043   4.154   5.835 -1.6554  0.2864 -2.6346
 2188WAT      O 6774   1.734   3.484   1.528  0.0283 -0.0520  0.1852
 2188WAT     H1 6775   1.644   3.481   1.559 -0.4414  0.7384 -1.0106
 2188WAT     H2 6776   1.737   3.421   1.456  0.6982 -0.7679  0.8145
 2189WAT      O 6777   3.535   0.272   1.453 -0.4967 -0.1473 -0.0129
 2189WAT     H1 6778   3.579   0.290   1.371  0.8397 -1.6409  0.3274
 2189WAT     H2 6779   3.468   0.341   1.460  1.1940  1.6884 -0.9541
 2190WAT      O 6780   2.525   5.218   2.479  0.4564 -0.1913 -0.1394
 2190WAT     H1 6781   2.508   5.157   2.551 -0.4291  1.8324  1.4909
 2190WAT     H2 6782   2.611   5.254   2.499  0.7928 -0.5758 -0.8610
 2191WAT      O 6783   2.591   0.388   2.601  0.0454  0.5786 -0.3353
 2191WAT     H1 6784   2.558   0.469   2.640 -2.1021  0.0056 -0.8284
 2191WAT     H2 6785   2.661   0.417   2.542  0.8172  1.8169  1.1202
 2192WAT      O 6786   3.283   2.045   5.552  0.2377 -0.4602 -0.0286
 2192WAT     H1 6787   3.279   2.002   5.637  0.4492  0.9654  0.7223
 2192WAT     H2 6788   3.192   2.066   5.531  0.3153  0.5085  0.5564
 2193WAT      O 6789   0.561   4.159   2.158  0.3354 -0.4180  0.4710
 2193WAT     H1 6790   0.546   4.112   2.076  0.7311 -0.3859  0.3758
 2193WAT     H2 6791   0.577   4.249   2.132 -0.0408 -0.3073  0.6241
 2194WAT      O 6792   2.646   1.625   3.021  0.0718  0.4111  0.7496
 2194WAT     H1 6793   2.699   1.604   2.943  1.0752  0.7021  1.3390
 2194WAT     H2 6794   2.657   1.549   3.078  1.0233  1.0579  1.4711
 2195WAT      O 6795   1.424   2.138   4.871 -0.2159 -0.0772 -0.2801
 2195WAT     H1 6796   1.354   2.090   4.826 -1.0997  0.4418  0.4989
 2195WAT     H2 6797   1.409   2.121   4.964  0.6683  0.0898 -0.0969
 2196WAT      O 6798   2.516   5.535   2.181  0.1144  0.0269  0.0390
 2196WAT     H1 6799   2.465   5.581   2.248  0.8898  0.5679  0.2731
 2196WAT     H2 6800   2.602   5.522   2.220 -0.3024 -2.3591  0.2606
 2197WAT      O 6801   3.267   0.037   4.192 -0.2095  0.3219 -0.5577
 2197WAT     H1 6802   3.338   0.059   4.132 -0.3345  2.3916 -0.0130
 2197WAT     H2 6803   3.187   0.059   4.143 -0.4334 -0.4189 -0.5479
 2198WAT      O 6804   3.406   3.314   1.754  0.0233  0.1490 -0.1928
 2198WAT     H1 6805   3.484   3.370   1.745 -0.8677  1.4189 -0.2854
 2198WAT     H2 6806   3.357   3.329   1.674 -1.0913  0.6227  0.5515
 2199WAT      O 6807   1.057   3.476   1.744  0.2741 -0.1039  0.2080
 2199WAT     H1 6808   1.092   3.388   1.755 -0.3208 -0.2201  1.3431
 2199WAT     H2 6809   1.042   3.507   1.833  0.9177  1.3351 -0.1590
 2200WAT      O 6810   1.630   2.606   1.086 -0.5986 -0.1965 -0.0236
 2200WAT     H1 6811   1.610   2.695   1.117  0.3133  0.1173 -0.3049
 2200WAT     H2 6812   1.705   2.579   1.139 -1.8748 -1.4712  1.2389
 2201WAT      O 6813   2.068   0.051   3.387  0.1907  0.4795 -0.2717
 2201WAT     H1 6814   2.033   0.139   3.369  1.5644  0.8731 -1.2059
 2201WAT     H2 6815   2.153   0.067   3.429  0.8389 -0.3750 -1.2107
 2202WAT      O 6816   3.518   3.990   0.844 -0.2401 -0.6749 -0.0867
 2202WAT     H1 6817   3.514   4.072   0.895  1.6157 -1.5369  1.6028
 2202WAT     H2 6818   3.543   4.018   0.756  0.3218  0.6088  0.4490
 2203WAT      O 6819   3.028   2.520   2.957 -0.5000  0.1418  0.1560
 2203WAT     H1 6820   3.087   2.596   2.964 -1.0027  0.4986  0.5921
 2203WAT     H2 6821   3.067   2.455   3.016  0.3448 -0.2242 -0.7838
 2204WAT      O 6822   1.935   3.480   2.196 -0.1496  0.3261  0.0516
 2204WAT     H1 6823   2.021   3.438   2.201 -0.2152  0.3199  1.3908
 2204WAT     H2 6824   1.884   3.423   2.139  0.5678  0.0469 -0.3245
 2205WAT      O 6825   3.177   1.518   4.718 -0.2920  0.3300 -0.4059
 2205WAT     H1 6826   3.249   1.516   4.655 -0.5225  0.2712 -0.6701
 2205WAT     H2 6827   3.216   1.490   4.801 -0.6848 -3.0102 -1.2023
 2206WAT      O 6828   2.193   0.528   2.561 -0.4895 -0.1065 -0.2642
 2206WAT     H1 6829   2.124   0.590   2.584 -1.3035 -0.6829 -1.0716
 2206WAT     H2 6830   2.274   0.572   2.585 -0.9448  1.9099 -2.1265
 2207WAT      O 6831   2.310   3.020   0.397  0.2804 -0.6805 -0.6798
 2207WAT     H1 6832   2.223   3.058   0.393  1.5310  2.4526 -1.3502
 2207WAT     H2 6833   2.356   3.059   0.322  2.9232 -0.2169  1.0495
 2208WAT      O 6834   3.272   4.617   1.155 -0.0363 -0.0736 -0.2975
 2208WAT     H1 6835   3.321   4.608   1.073 -0.5768 -1.3228 -0.5047
 2208WAT     H2 6836   3.184   4.584   1.134 -0.6943  1.1960  0.3340
 2209WAT      O 6837   0.717   0.748   3.979  0.4931 -0.2170 -0.2853
 2209WAT     H1 6838   0.704   0.817   4.044  0.5598 -0.3224 -0.1585
 2209WAT     H2 6839   0.765   0.680   4.026 -0.1799 -0.6489 -0.2136
 2210WAT      O 6840   1.860   3.357   1.043  0.4111  0.1299 -0.2894
 2210WAT     H1 6841   1.800   3.397   0.980  1.4808 -0.8693 -1.9934
 2210WAT     H2 6842   1.931   3.421   1.051  1.4215 -0.7360 -1.9294
 2211WAT      O 6843   2.534   5.043   1.409  0.1951  0.2830 -0.5017
 2211WAT     H1 6844   2.490   5.034   1.494  1.7573 -2.1753  0.1507
 2211WAT     H2 6845   2.588   5.122   1.418 -0.6302  0.7664  0.3116
 2212WAT      O 6846   3.914   1.681   3.662  0.7720 -0.4463  0.7470
 2212WAT     H1 6847   3.896   1.726   3.580  0.8296 -0.0498  0.9484
 2212WAT     H2 6848   3.968   1.606   3.637 -2.2180 -2.5223 -0.0961
 2213WAT      O 6849   2.002   4.074   1.429 -0.3629 -0.2264 -0.5506
 2213WAT     H1 6850   1.998   4.168   1.446 -1.9538 -0.0807 -1.4795
 2213WAT     H2 6851   1.987   4.066   1.335 -0.0256 -1.4047 -0.5261
 2214WAT      O 6852   2.477   4.310   0.225 -0.6621 -0.1348 -0.4698
 2214WAT     H1 6853   2.512   4.268   0.146 -0.5173  0.5039 -0.7513
 2214WAT     H2 6854   2.440   4.238   0.276  0.5953 -0.7668 -0.4007
 2215WAT      O 6855   3.275   3.412   4.801 -0.0138  0.2925  0.1683
 2215WAT     H1 6856   3.214   3.360   4.853 -0.6797 -0.4806 -1.3091
 2215WAT     H2 6857   3.335   3.348   4.764 -0.0412  0.7177 -0.6342
 2216WAT      O 6858   0.348   2.395   4.505 -0.2501 -0.2780 -0.0680
 2216WAT     H1 6859   0.268   2.357   4.468 -0.5855 -1.4876  1.7948
 2216WAT     H2 6860   0.353   2.483   4.467 -3.0512  0.2465  0.6092
 2217WAT      O 6861   1.039   3.603   5.490 -0.2363 -0.3945  0.2685
 2217WAT     H1 6862   0.997   3.556   5.418  0.3526  0.7959 -0.9078
 2217WAT     H2 6863   0.985   3.584   5.566 -0.3644 -2.4220 -0.2837
 2218WAT      O 6864   0.930   4.400   4.960 -0.2473 -0.2888  0.8236
 2218WAT     H1 6865   0.978   4.317   4.962 -2.4459 -1.6039  1.4936
 2218WAT     H2 6866   0.910   4.418   5.052 -1.8542 -0.2969  0.4929
 2219WAT      O 6867   2.750   4.896   5.452 -0.2374  0.1727 -0.5549
 2219WAT     H1 6868   2.768   4.813   5.496  0.0383 -0.7993 -2.4071
 2219WAT     H2 6869   2.664   4.883   5.412 -0.2573  0.8397 -0.7358
 2220WAT      O 6870   1.183   4.118   5.290  0.8534 -0.3799  0.0799
 2220WAT     H1 6871   1.253   4.172   5.253  1.1421 -0.2367  0.8146
 2220WAT     H2 6872   1.226   4.066   5.358  0.2404 -0.2680  0.5615
 2221WAT      O 6873   2.652   1.691   5.304  0.2866 -0.2643  0.5482
 2221WAT     H1 6874   2.701   1.690   5.386 -0.1227  0.5989  0.8186
 2221WAT     H2 6875   2.666   1.605   5.266  1.0177 -0.4455  1.2083
 2222WAT      O 6876   2.380   3.604   5.268  0.4184 -0.0895  0.1004
 2222WAT     H1 6877   2.369   3.509   5.268  0.1087 -0.0608  1.1831
 2222WAT     H2 6878   2.464   3.617   5.224 -0.0198 -0.7922 -0.9783
 2223WAT      O 6879   2.722   1.456   5.224  0.0375 -0.0329 -0.1413
 2223WAT     H1 6880   2.804   1.504   5.241 -0.0848  0.4614 -0.8850
 2223WAT     H2 6881   2.731   1.426   5.134 -0.9501  0.7283 -0.4989
 2224WAT      O 6882   4.206   0.755   3.819  0.1652  0.5137 -0.3862
 2224WAT     H1 6883   4.253   0.837   3.834 -1.6874  1.2004  2.3831
 2224WAT     H2 6884   4.247   0.718   3.740  2.9929  2.6495 -0.0826
 2225WAT      O 6885   2.806   2.279   5.090  0.2224  0.4135  0.1824
 2225WAT     H1 6886   2.763   2.308   5.009 -1.9712  1.6457  1.6890
 2225WAT     H2 6887   2.858   2.355   5.117  0.3121  0.2948  0.3399
 2226WAT      O 6888   1.337   3.901   5.783 -0.4576  0.1017 -0.2475
 2226WAT     H1 6889   1.316   3.807   5.778 -0.3473  0.0131  0.7241
 2226WAT     H2 6890   1.260   3.940   5.824 -0.0269  0.2474  0.4449
 2227WAT      O 6891   3.847   1.524   4.828 -0.0368 -0.2077  0.3378
 2227WAT     H1 6892   3.922   1.485   4.873  0.1395  2.3420  2.5055
 2227WAT     H2 6893   3.779   1.531   4.895 -0.6568  1.4944 -0.4103
 2228WAT      O 6894   2.771   3.458   0.315  0.1147 -0.1866  0.0117
 2228WAT     H1 6895   2.681   3.490   0.317  0.8694  2.0900  1.2895
 2228WAT     H2 6896   2.805   3.487   0.230 -0.2236 -0.7659 -0.3323
 2229WAT      O 6897   3.535   2.760   1.453 -0.3113  0.4357 -0.4095
 2229WAT     H1 6898   3.467   2.807   1.404  0.4965  1.0659 -0.9415
 2229WAT     H2 6899   3.579   2.827   1.505 -1.1854 -0.2356  1.2738
 2230WAT      O 6900   0.831   0.990   2.656  0.0276 -0.8110  0.2748
 2230WAT     H1 6901   0.779   0.937   2.596  0.9383 -0.8202 -0.5216
 2230WAT     H2 6902   0.787   0.979   2.741 -0.9843 -1.1856 -0.2832
 2231WAT      O 6903   4.637   5.031   3.292 -0.0196  0.1153  0.2209
 2231WAT     H1 6904   4.714   4.979   3.269 -0.4370 -0.2804 -0.3288
 2231WAT     H2 6905   4.638   5.034   3.387 -0.2416 -1.3316  0.2965
 2232WAT      O 6906   1.442   1.522   4.807  0.1453  0.3367 -0.0799
 2232WAT     H1 6907   1.396   1.444   4.774 -0.2822  0.1943  0.8396
 2232WAT     H2 6908   1.509   1.539   4.740 -1.1936  0.5279 -1.4396
 2233WAT      O 6909   3.786   1.052   4.374  0.0891  0.1795  0.6072
 2233WAT     H1 6910   3.751   1.057   4.285  1.0337  0.4472  0.2363
 2233WAT     H2 6911   3.781   1.142   4.406  1.0426  0.3507  0.3027
 2234WAT      O 6912   1.794   4.308   4.650 -0.0822  0.6754 -0.0627
 2234WAT     H1 6913   1.830   4.320   4.562  2.9678  1.2264  1.1457
 2234WAT     H2 6914   1.771   4.396   4.679  1.1571  0.8267  0.5219
 2235WAT      O 6915   2.207   4.367   2.167 -0.0372  0.4583 -0.0901
 2235WAT     H1 6916   2.142   4.300   2.144  0.8711  0.0625 -1.6401
 2235WAT     H2 6917   2.193   4.437   2.104  1.6690 -0.0768 -1.1382
 2236WAT      O 6918   3.557   4.067   1.883 -0.0026 -0.1294  0.0087
 2236WAT     H1 6919   3.629   4.018   1.844  0.0626  0.0636 -0.1146
 2236WAT     H2 6920   3.530   4.014   1.958  1.1600  0.4562  0.8704
 2237WAT      O 6921   3.193   5.416   3.002  0.0315 -0.0562  0.2364
 2237WAT     H1 6922   3.264   5.386   2.945  0.9921 -1.8065  2.1887
 2237WAT     H2 6923   3.116   5.421   2.945  1.1295 -0.8028 -1.3778
 2238WAT      O 6924   3.160   1.451   1.754  0.1027 -0.0411 -0.3351
 2238WAT     H1 6925   3.224   1.381   1.739 -1.3425 -1.5077  0.0250
 2238WAT     H2 6926   3.122   1.430   1.839 -0.1367  1.3987 -0.0750
 2239WAT      O 6927   2.887   4.674   5.553  0.1196  0.0556 -0.3429
 2239WAT     H1 6928   2.952   4.726   5.505  1.0876 -1.4198 -0.7100
 2239WAT     H2 6929   2.879   4.593   5.502 -0.7918 -0.4640  0.5860
 2240WAT      O 6930   1.261   4.074   3.017  0.0345  0.3092 -0.2114
 2240WAT     H1 6931   1.257   4.065   2.921 -4.6775  1.1495 -0.3627
 2240WAT     H2 6932   1.333   4.017   3.043  1.0781 -0.5526 -4.1924
 2241WAT      O 6933   1.439   4.434   0.603  0.4881  0.1971 -0.2129
 2241WAT     H1 6934   1.377   4.363   0.617  0.8594  0.1040  1.0956
 2241WAT     H2 6935   1.437   4.484   0.685  1.0346  1.0623 -0.7104
 2242WAT      O 6936   0.963   5.562   1.656 -0.1598  0.5147 -0.0813
 2242WAT     H1 6937   1.055   5.575   1.632  0.6370  1.1053  2.7932
 2242WAT     H2 6938   0.923   5.519   1.581  2.6546 -0.4643 -1.1189
 2243WAT      O 6939   2.904   4.692   1.326 -0.2370  0.2599  0.3553
 2243WAT     H1 6940   2.858   4.776   1.333 -1.6690 -0.5663  1.3841
 2243WAT     H2 6941   2.900   4.670   1.233 -0.3755  1.0429  0.1650
 2244WAT      O 6942   2.772   3.804   1.109  0.2521  0.4178 -0.1044
 2244WAT     H1 6943   2.817   3.884   1.080 -0.9095  0.8274 -0.8225
 2244WAT     H2 6944   2.680   3.819   1.087  0.0582 -1.2514 -0.5249
 2245WAT      O 6945   3.323   5.581   5.528 -0.5024 -0.0581  0.1102
 2245WAT     H1 6946   3.249   5.605   5.583  0.4993 -1.3512  2.1303
 2245WAT     H2 6947   3.361   5.664   5.499 -0.1941  0.7305  2.6078
 2246WAT      O 6948   0.896   5.129   3.767  0.2755  0.2125  0.1381
 2246WAT     H1 6949   0.959   5.061   3.741 -0.5243 -1.2174  1.7974
 2246WAT     H2 6950   0.949   5.193   3.815  0.9540  0.5892 -1.0559
 2247WAT      O 6951   2.350   0.023   2.322  0.3166  0.2530 -0.7632
 2247WAT     H1 6952   2.268  -0.012   2.356 -0.3361  0.3977 -2.1465
 2247WAT     H2 6953   2.342   0.118   2.331  0.1342  0.2930 -1.3224
 2248WAT      O 6954   4.793   3.842   5.291  0.0446 -0.4848 -0.2573
 2248WAT     H1 6955   4.858   3.834   5.361  0.3303  1.0770 -0.3239
 2248WAT     H2 6956   4.813   3.769   5.232 -0.1567 -1.8007  1.2128
 2249WAT      O 6957   3.707   1.944   4.252  0.3919 -0.1189 -0.3241
 2249WAT     H1 6958   3.690   1.995   4.332  0.8597  0.1028 -0.3610
 2249WAT     H2 6959   3.707   1.853   4.281 -0.3314 -0.0911 -0.2323
 2250WAT      O 6960   1.670   4.650   4.482 -0.1883 -0.1390  0.0005
 2250WAT     H1 6961   1.640   4.739   4.501  0.3505  0.1933 -0.6570
 2250WAT     H2 6962   1.724   4.659   4.403  2.4135 -0.5355  1.6119
 2251WAT      O 6963   4.149   5.210   2.085 -0.1380 -0.5966 -0.1125
 2251WAT     H1 6964   4.193   5.272   2.142  1.4732 -0.5789 -1.2922
 2251WAT     H2 6965   4.126   5.262   2.007 -3.6346 -0.2495  1.0003
 2252WAT      O 6966   0.824   1.257   3.463  0.5712  0.0657 -0.1259
 2252WAT     H1 6967   0.761   1.303   3.409 -0.4099 -0.6922  0.3293
 2252WAT     H2 6968   0.771   1.215   3.532  1.4814 -1.1165 -0.0993
 2253WAT      O 6969   1.530   2.699   0.431  0.4985  0.4437  0.4740
 2253WAT     H1 6970   1.512   2.717   0.523  0.5431 -2.6904  1.1895
 2253WAT     H2 6971   1.622   2.724   0.420  0.7126  0.1561  1.4736
 2254WAT      O 6972   2.479   3.374   2.103 -0.0733 -0.2456 -0.3075
 2254WAT     H1 6973   2.509   3.465   2.109 -1.2896  0.2848 -1.7323
 2254WAT     H2 6974   2.465   3.359   2.010 -0.6829 -1.6403 -0.0192
 2255WAT      O 6975   1.614   1.888   0.952  0.4646  0.5068 -0.2807
 2255WAT     H1 6976   1.546   1.902   0.886  1.7671  1.3610 -1.4946
 2255WAT     H2 6977   1.660   1.809   0.923 -0.2209 -0.2887  0.7443
 2256WAT      O 6978   2.366   0.392   1.351  0.1205  0.1992 -0.2451
 2256WAT     H1 6979   2.292   0.418   1.296 -0.7031  0.4511  0.9415
 2256WAT     H2 6980   2.384   0.302   1.325 -0.4467  0.2097 -0.7168
 2257WAT      O 6981   3.385   0.831   5.674  0.3535  0.6256 -0.2278
 2257WAT     H1 6982   3.422   0.903   5.725  0.6842 -0.1991  0.7399
 2257WAT     H2 6983   3.359   0.766   5.740 -2.3322  0.9023 -0.8842
 2258WAT      O 6984   2.029   4.121   4.201  0.2066  0.2740 -0.0555
 2258WAT     H1 6985   2.001   4.144   4.113  0.3015  0.5964 -0.0071
 2258WAT     H2 6986   2.102   4.181   4.219 -1.1294  1.6726  1.0236
 2259WAT      O 6987   3.977   3.645   4.256  0.2472  0.3123  0.1178
 2259WAT     H1 6988   4.064   3.686   4.254  0.4058 -0.0567 -1.4584
 2259WAT     H2 6989   3.968   3.616   4.347  0.5131  2.9378  1.0843
 2260WAT      O 6990   3.908   5.318   2.953  0.5653 -0.2821  0.2916
 2260WAT     H1 6991   3.861   5.256   3.008  1.1415 -0.1165  0.9887
 2260WAT     H2 6992   3.985   5.342   3.004  0.2003  1.2454  0.1737
 2261WAT      O 6993   4.255   2.473   2.799 -0.4104 -0.0057  0.4392
 2261WAT     H1 6994   4.254   2.562   2.762  3.9999  0.1443  0.1581
 2261WAT     H2 6995   4.240   2.416   2.724 -0.4624  0.4394  0.1009
 2262WAT      O 6996   2.548   0.568   4.461 -0.3495  0.0026 -0.0799
 2262WAT     H1 6997   2.620   0.512   4.434 -1.6804 -1.4166 -0.8074
 2262WAT     H2 6998   2.584   0.620   4.533  0.6981 -2.4068  1.2411
 2263WAT      O 6999   2.783   4.338   3.685  0.2116 -0.3032  0.4445
 2263WAT     H1 7000   2.694   4.374   3.691 -0.5103 -1.8031 -0.5702
 2263WAT     H2 7001   2.840   4.409   3.715 -1.0228  2.0483 -2.2485
 2264WAT      O 7002   3.332   0.582   1.771 -0.0895 -0.9345  0.1043
 2264WAT     H1 7003   3.324   0.675   1.791  0.5904 -0.5648 -1.2108
 2264WAT     H2 7004   3.372   0.544   1.849 -2.3516 -0.5442  1.5160
 2265WAT      O 7005   1.632   0.601   3.516  0.3572  0.7122  0.6986
 2265WAT     H1 7006   1.596   0.670   3.570 -0.6977  0.2682  0.5791
 2265WAT     H2 7007   1.558   0.569   3.464  0.5255 -1.3323  1.6287
 2266WAT      O 7008   1.186   0.507   3.260  0.4867 -0.1415  0.2080
 2266WAT     H1 7009   1.127   0.576   3.289  1.4309  1.3940 -1.3052
 2266WAT     H2 7010   1.130   0.443   3.216 -0.0589  1.3097 -1.2517
 2267WAT      O 7011   2.437   2.250   4.335 -0.0188 -0.1938 -0.0823
 2267WAT     H1 7012   2.492   2.202   4.273  1.5388  0.8219  0.4815
 2267WAT     H2 7013   2.383   2.182   4.375  0.5640 -1.1722 -0.8973
 2268WAT      O 7014   2.391   0.094   4.700  0.1715 -0.2503 -0.4492
 2268WAT     H1 7015   2.362   0.172   4.653  2.0560  0.5939 -0.2949
 2268WAT     H2 7016   2.361   0.021   4.647 -0.3491  0.6138 -1.3699
 2269WAT      O 7017   0.142   5.499   3.502  0.5562  0.0547 -0.0609
 2269WAT     H1 7018   0.063   5.515   3.553  0.1566 -1.5270 -0.1522
 2269WAT     H2 7019   0.111   5.465   3.418  1.3210 -0.8067 -0.0105
 2270WAT      O 7020   4.565   2.571   4.583 -0.4191  0.1628 -0.4287
 2270WAT     H1 7021   4.604   2.635   4.524  0.9808 -1.0867 -0.8990
 2270WAT     H2 7022   4.552   2.619   4.665  1.2263  0.8787 -0.5635
 2271WAT      O 7023   3.057   0.250   2.938 -0.0963 -0.1052 -0.1077
 2271WAT     H1 7024   3.052   0.211   3.025 -1.7836 -0.3626 -0.2910
 2271WAT     H2 7025   3.150   0.272   2.928  0.5081 -1.9303  0.9159
 2272WAT      O 7026   1.893   1.037   3.824 -0.2085  0.1933 -0.1602
 2272WAT     H1 7027   1.943   0.977   3.768 -1.2237  0.1461 -1.0580
 2272WAT     H2 7028   1.881   0.990   3.906  2.3959  0.7482  0.6363
 2273WAT      O 7029   1.378   5.053   5.121 -0.2965  0.0463 -0.1535
 2273WAT     H1 7030   1.360   4.960   5.113 -0.5871  0.0359  0.6192
 2273WAT     H2 7031   1.327   5.093   5.050 -0.0404 -0.3829 -0.5930
 2274WAT      O 7032   1.841   2.904   4.874  0.8326  0.2829  0.4926
 2274WAT     H1 7033   1.880   2.825   4.913  1.2252  0.9628  1.5083
 2274WAT     H2 7034   1.782   2.937   4.942 -2.9533 -1.5941 -1.4830
 2275WAT      O 7035   3.103   1.219   5.157  0.3195  0.0115 -0.3314
 2275WAT     H1 7036   3.150   1.301   5.145  0.1676  0.5663  2.4030
 2275WAT     H2 7037   3.151   1.173   5.226 -1.4407 -0.7247  0.4729
 2276WAT      O 7038   0.597   2.058   3.143 -1.1259  0.3753  0.4928
 2276WAT     H1 7039   0.513   2.103   3.153 -1.1781  0.5203 -0.4963
 2276WAT     H2 7040   0.601   1.998   3.217 -0.7635  2.4252  2.2466
 2277WAT      O 7041   0.011   0.937   2.781  0.4506  0.0889  0.2265
 2277WAT     H1 7042   0.097   0.977   2.778  1.4738 -1.9481  0.4777
 2277WAT     H2 7043   0.026   0.846   2.755 -1.9285  0.1094 -1.5467
 2278WAT      O 7044   3.096   0.896   4.929 -0.1540 -0.0990  0.3005
 2278WAT     H1 7045   3.011   0.915   4.968 -0.4598 -0.0342 -0.3865
 2278WAT     H2 7046   3.094   0.939   4.844  0.1297 -1.0480 -0.1983
 2279WAT      O 7047   0.376   5.610   2.238  0.2023  0.1134  0.8711
 2279WAT     H1 7048   0.437   5.541   2.212 -1.2667 -1.3658  1.1973
 2279WAT     H2 7049   0.307   5.564   2.286 -1.7267  1.5457 -0.3761
 2280WAT      O 7050   1.329   1.109   4.821 -0.0196 -0.0486  0.2726
 2280WAT     H1 7051   1.371   1.152   4.896 -0.3557 -0.5935  0.7875
 2280WAT     H2 7052   1.317   1.179   4.757 -1.6254  0.9172  1.5387
 2281WAT      O 7053   2.344   3.569   2.904  0.0412 -0.5644  0.2010
 2281WAT     H1 7054   2.355   3.656   2.867 -0.8821 -0.3453  0.4009
 2281WAT     H2 7055   2.260   3.539   2.869 -0.2721 -0.8398  1.1581
 2282WAT      O 7056   3.575   0.043   4.392 -0.6256  0.0318 -0.0491
 2282WAT     H1 7057   3.576   0.109   4.460 -0.3706 -0.3220  0.2932
 2282WAT     H2 7058   3.666   0.015   4.383 -0.9788 -1.7194  1.2429
 2283WAT      O 7059   3.023   3.628   4.880  0.0369  0.3850 -0.1426
 2283WAT     H1 7060   3.097   3.674   4.920 -0.5647 -0.5033  2.1773
 2283WAT     H2 7061   2.987   3.689   4.816  0.4088  2.3881  1.4837
 2284WAT      O 7062   3.547   2.094   5.458  0.0441  0.0022 -0.3552
 2284WAT     H1 7063   3.474   2.098   5.521  1.1543  0.4947  0.9487
 2284WAT     H2 7064   3.587   2.008   5.473 -0.4909 -0.4413 -1.3626
 2285WAT      O 7065   3.404   5.149   5.409  0.0895  0.0308  0.2767
 2285WAT     H1 7066   3.493   5.155   5.374 -0.1384  0.4202 -0.2595
 2285WAT     H2 7067   3.358   5.224   5.370  0.1414  1.2764  2.4221
 2286WAT      O 7068   2.256   4.811   3.037 -0.0440 -0.7643  0.7265
 2286WAT     H1 7069   2.163   4.829   3.050  0.3094  0.7969  1.3037
 2286WAT     H2 7070   2.291   4.891   3.000  0.7040 -2.0816 -1.5812
 2287WAT      O 7071   3.420   5.269   5.644  0.0524  0.2694  1.1603
 2287WAT     H1 7072   3.431   5.223   5.561  1.5261  1.1985  0.8032
 2287WAT     H2 7073   3.386   5.202   5.704 -0.1122 -0.6567  0.0690
 2288WAT      O 7074   3.581   2.162   4.829  0.4677 -0.8728 -0.1535
 2288WAT     H1 7075   3.659   2.112   4.853  1.3403 -0.0509 -1.2228
 2288WAT     H2 7076   3.585   2.241   4.883  0.3769 -0.8216 -0.2212
 2289WAT      O 7077   4.145   0.985   3.535  0.5925 -0.4715 -0.7018
 2289WAT     H1 7078   4.205   1.051   3.569  0.7489 -0.7251 -0.4713
 2289WAT     H2 7079   4.201   0.928   3.482  0.4434 -0.3709 -0.9652
 2290WAT      O 7080   3.514   1.444   4.507 -0.0167 -0.3878 -0.4857
 2290WAT     H1 7081   3.489   1.433   4.599 -1.6111 -0.9662 -0.9699
 2290WAT     H2 7082   3.609   1.459   4.510 -0.2275  0.9671  1.3540
 2291WAT      O 7083   3.026   3.225   4.788 -0.0205  0.1965 -0.3890
 2291WAT     H1 7084   2.990   3.289   4.849  0.1546 -0.9826  1.0133
 2291WAT     H2 7085   2.987   3.142   4.816  3.1043 -1.0446  0.7582
 2292WAT      O 7086   2.202   5.165   4.008 -0.1500  0.1830  0.3971
 2292WAT     H1 7087   2.263   5.093   3.991 -0.2865 -0.3049  1.8318
 2292WAT     H2 7088   2.126   5.123   4.048 -0.5739  1.0215  0.4918
 2293WAT      O 7089   1.020   4.677   4.988 -0.0323  0.6713 -0.2127
 2293WAT     H1 7090   1.005   4.599   4.933 -2.0073  0.5067  0.4523
 2293WAT     H2 7091   1.091   4.723   4.945  0.1268 -0.7022 -1.5321
 2294WAT      O 7092   0.468   3.873   3.276 -0.0623 -0.3416 -0.0142
 2294WAT     H1 7093   0.386   3.921   3.280  0.3261  0.3468 -0.2769
 2294WAT     H2 7094   0.489   3.869   3.183  0.8588  0.6249  0.1379
 2295WAT      O 7095   1.393   3.477   4.577 -0.1134 -0.0034  0.0211
 2295WAT     H1 7096   1.370   3.565   4.607 -0.1455 -0.1452  0.4134
 2295WAT     H2 7097   1.455   3.492   4.505  1.1905  0.3255  1.1759
 2296WAT      O 7098   2.158   0.643   1.172  0.4699  0.4453  0.4767
 2296WAT     H1 7099   2.077   0.694   1.178  0.1581 -0.1923  2.4234
 2296WAT     H2 7100   2.129   0.552   1.183  1.1785 -0.0960 -1.5727
 2297WAT      O 7101   3.121   0.087   3.950  0.4270  0.1164 -0.4471
 2297WAT     H1 7102   3.029   0.109   3.955  0.1824 -0.9165 -0.0881
 2297WAT     H2 7103   3.140   0.084   3.856 -0.0381 -0.1723 -0.5360
 2298WAT      O 7104   1.313   3.708   4.636 -0.4408  0.2743 -0.1886
 2298WAT     H1 7105   1.314   3.742   4.726 -0.8012 -1.0648  0.3449
 2298WAT     H2 7106   1.221   3.709   4.610 -0.3811  0.3111 -0.4016
 2299WAT      O 7107   2.915   1.598   3.518 -0.4444  0.3296 -0.1636
 2299WAT     H1 7108   2.950   1.604   3.607 -1.0637  1.8589  0.0038
 2299WAT     H2 7109   2.991   1.607   3.461 -0.1192 -0.0882  0.1947
 2300WAT      O 7110   3.410   3.099   5.525  0.1116  0.3060  0.8578
 2300WAT     H1 7111   3.434   3.053   5.605  1.3575 -0.0804  0.3015
 2300WAT     H2 7112   3.493   3.112   5.479 -0.7477 -1.7020 -1.5368
 2301WAT      O 7113   1.212   2.565   0.464  0.0262  0.0932  0.2959
 2301WAT     H1 7114   1.121   2.540   0.481 -0.0047 -0.1294 -0.1895
 2301WAT     H2 7115   1.207   2.623   0.388  0.2880  0.1198  0.2999
 2302WAT      O 7116   4.033   5.160   3.320  0.1898  0.2475  0.1931
 2302WAT     H1 7117   4.077   5.125   3.397  0.8407  2.3279  0.8409
 2302WAT     H2 7118   4.105   5.186   3.262 -0.2770 -2.4108 -1.7387
 2303WAT      O 7119   1.675   0.644   4.623  0.5099 -0.0777 -0.0668
 2303WAT     H1 7120   1.749   0.687   4.666  0.6042  0.9791 -1.2240
 2303WAT     H2 7121   1.613   0.714   4.606 -0.0517 -0.6825 -0.5507
 2304WAT      O 7122   0.412   0.879   2.577 -0.4364 -0.8210 -0.2646
 2304WAT     H1 7123   0.351   0.927   2.522 -1.4595 -1.0769  0.6209
 2304WAT     H2 7124   0.497   0.890   2.533 -0.8880  0.5615 -0.8590
 2305WAT      O 7125   4.621   0.878   4.024 -0.3220  0.1933 -0.0820
 2305WAT     H1 7126   4.668   0.799   4.053  3.1567  0.7117 -3.4881
 2305WAT     H2 7127   4.625   0.937   4.099  3.7564 -0.2579  0.2757
 2306WAT      O 7128   1.456   3.058   4.242  0.0963  0.3013 -0.3904
 2306WAT     H1 7129   1.442   3.094   4.155  1.6508  1.2165 -0.2949
 2306WAT     H2 7130   1.406   3.116   4.300 -0.1649  0.2604 -0.5737
 2307WAT      O 7131   2.365   4.046   4.356  0.5823  0.3463  0.0350
 2307WAT     H1 7132   2.361   3.976   4.292 -2.5114 -2.4451  2.8700
 2307WAT     H2 7133   2.342   4.125   4.306 -2.1490 -1.7141 -2.3143
 2308WAT      O 7134   3.428   1.044   4.259  0.2377  0.1700  0.3581
 2308WAT     H1 7135   3.417   1.003   4.173  2.6261  1.2656 -0.5620
 2308WAT     H2 7136   3.385   0.984   4.320  0.5109 -1.8366 -1.3248
 2309WAT      O 7137   2.093   1.765   5.737  0.2084 -0.2149  0.0688
 2309WAT     H1 7138   2.101   1.750   5.831 -0.8985  0.1028  0.2331
 2309WAT     H2 7139   2.089   1.861   5.728 -0.4336 -0.2596 -0.2166
 2310WAT      O 7140   3.715   1.030   4.106 -0.0947  0.5693  0.0981
 2310WAT     H1 7141   3.740   0.941   4.079  0.5024  0.7237  0.1246
 2310WAT     H2 7142   3.643   1.053   4.049  0.8685  0.7317 -1.0887
 2311WAT      O 7143   1.334   2.887   2.877  0.0440 -0.6112 -0.1733
 2311WAT     H1 7144   1.354   2.892   2.783  0.8706 -1.0926 -0.0276
 2311WAT     H2 7145   1.412   2.848   2.916 -0.2294 -0.2507  0.7427
 2312WAT      O 7146   1.537   2.809   3.379  0.0157  0.1787  0.2772
 2312WAT     H1 7147   1.492   2.726   3.398 -1.1740  0.5376 -0.7837
 2312WAT     H2 7148   1.605   2.815   3.446  1.2552 -2.4537 -0.5953
 2313WAT      O 7149   2.025   0.204   4.330  0.2338 -0.0296 -0.2380
 2313WAT     H1 7150   2.035   0.267   4.402 -0.3352 -0.9383  0.6558
 2313WAT     H2 7151   2.104   0.151   4.333 -0.6608 -1.3813  1.0620
 2314WAT      O 7152   4.945   3.720   3.646 -0.0370  0.6694 -0.4566
 2314WAT     H1 7153   4.944   3.815   3.632 -0.6368  0.7012 -0.2357
 2314WAT     H2 7154   4.854   3.698   3.665  0.4854  0.4544  2.1834
 2315WAT      O 7155   0.750   0.409   3.917  0.2105  0.2998 -0.2541
 2315WAT     H1 7156   0.809   0.473   3.955  1.8826 -0.8487 -0.8110
 2315WAT     H2 7157   0.712   0.363   3.992  0.5554  0.5848  0.0942
 2316WAT      O 7158   0.721   3.509   3.608 -0.1732  0.0798  0.2877
 2316WAT     H1 7159   0.703   3.586   3.554  1.5078 -1.2314 -2.4015
 2316WAT     H2 7160   0.805   3.529   3.650 -0.1349  0.0516  0.2258
 2317WAT      O 7161   2.305   5.382   5.015  0.3652  0.1046 -0.2871
 2317WAT     H1 7162   2.364   5.309   5.030  0.9954  0.5879 -0.3781
 2317WAT     H2 7163   2.359   5.460   5.025 -0.3919  0.5776  0.2414
 2318WAT      O 7164   3.847   4.320   4.753 -0.0940 -0.2009  0.3158
 2318WAT     H1 7165   3.865   4.281   4.668  2.3383  0.0764  0.6114
 2318WAT     H2 7166   3.794   4.397   4.735  0.5220 -0.0640 -0.9880
 2319WAT      O 7167   3.717   3.565   3.874  0.0603 -0.1436  0.0692
 2319WAT     H1 7168   3.749   3.654   3.885  0.2523  0.0424 -1.6440
 2319WAT     H2 7169   3.703   3.556   3.779 -0.8720 -1.6203  0.3046
 2320WAT      O 7170   1.808   1.830   0.161 -0.1167  0.3658 -0.2205
 2320WAT     H1 7171   1.789   1.859   0.071  1.5699 -0.2923 -0.8242
 2320WAT     H2 7172   1.762   1.747   0.169 -1.4600  1.1014  0.0531
 2321WAT      O 7173   3.057   5.423   4.100 -0.3970  0.3897 -1.0512
 2321WAT     H1 7174   3.048   5.329   4.088 -1.3099  0.3248  0.0339
 2321WAT     H2 7175   3.152   5.439   4.094 -0.0925 -0.8073  0.1990
 2322WAT      O 7176   3.257   4.753   3.213 -0.1649 -0.0547  0.5607
 2322WAT     H1 7177   3.244   4.833   3.264 -1.0720 -0.0836  0.3977
 2322WAT     H2 7178   3.267   4.684   3.278 -2.7143 -0.3153  0.7676
 2323WAT      O 7179   2.269   1.623   1.649  0.0633 -0.2767 -0.5069
 2323WAT     H1 7180   2.310   1.636   1.563 -0.1431  2.3185 -0.2787
 2323WAT     H2 7181   2.265   1.710   1.687  0.1788 -1.3632  2.2028
 2324WAT      O 7182   2.313   0.076   0.066 -0.5482 -0.0526  0.0377
 2324WAT     H1 7183   2.249   0.019   0.109 -0.3053 -0.0242  0.4372
 2324WAT     H2 7184   2.269   0.106  -0.013 -0.1086 -2.1168 -1.0733
 2325WAT      O 7185   2.701   2.896   5.155 -0.1464  0.2811 -0.0501
 2325WAT     H1 7186   2.615   2.934   5.176 -0.6701 -0.0171 -1.5431
 2325WAT     H2 7187   2.691   2.862   5.066  1.2275 -0.6714  0.1342
 2326WAT      O 7188   2.247   0.503   5.030  0.0430  0.6917  0.6204
 2326WAT     H1 7189   2.163   0.527   4.993  0.4052  1.6257  0.3834
 2326WAT     H2 7190   2.264   0.415   4.995  0.2056  1.3866 -1.1502
 2327WAT      O 7191   1.112   0.393   2.706  0.0512  0.6377  0.0547
 2327WAT     H1 7192   1.072   0.373   2.791 -0.5239 -1.1241 -0.5986
 2327WAT     H2 7193   1.190   0.338   2.703 -2.1023 -2.6610 -2.2028
 2328WAT      O 7194   2.960   1.596   5.185 -0.0946 -0.0322  0.5782
 2328WAT     H1 7195   3.050   1.626   5.175  0.3419 -1.5576 -0.4277
 2328WAT     H2 7196   2.909   1.655   5.130  0.4399  0.1619  0.2816
 2329WAT      O 7197   0.461   1.572   4.411 -0.2588  0.0563  0.5112
 2329WAT     H1 7198   0.468   1.607   4.499  1.5199 -0.3281  0.5518
 2329WAT     H2 7199   0.367   1.554   4.400 -0.7936  1.9693  1.5560
 2330WAT      O 7200   1.830   0.178   5.713  0.0593 -0.3718 -0.2676
 2330WAT     H1 7201   1.892   0.237   5.669 -0.7675  1.0041  0.3658
 2330WAT     H2 7202   1.870   0.092   5.705  1.5476  0.3339 -0.7901
 2331WAT      O 7203   2.697   1.276   4.966 -0.1932 -0.7759  0.1697
 2331WAT     H1 7204   2.773   1.273   4.908 -0.5638  0.8274 -0.4633
 2331WAT     H2 7205   2.685   1.186   4.996  2.7509 -0.8859  1.3575
 2332WAT      O 7206   1.541   1.585   4.557  0.0787  0.2390 -0.3312
 2332WAT     H1 7207   1.473   1.548   4.501  0.1240 -0.1918 -0.0995
 2332WAT     H2 7208   1.620   1.536   4.533  0.2439  0.5229 -0.3744
 2333WAT      O 7209   1.573   2.996   3.134 -0.3708 -0.3209  0.0442
 2333WAT     H1 7210   1.578   2.933   3.206 -1.0080 -0.8104 -0.3260
 2333WAT     H2 7211   1.523   2.950   3.066 -0.7751  0.5544 -0.2593
 2334WAT      O 7212   3.145   2.368   5.737  0.4162  0.2896 -0.3126
 2334WAT     H1 7213   3.114   2.311   5.667 -1.5904  1.7974 -0.7418
 2334WAT     H2 7214   3.175   2.448   5.693 -0.2934  1.0154  0.4598
 2335WAT      O 7215   0.668   4.574   3.670  0.3320  0.2103 -0.1651
 2335WAT     H1 7216   0.757   4.608   3.669  1.6771 -2.9632 -1.8361
 2335WAT     H2 7217   0.645   4.563   3.578 -1.2763 -0.3190  0.2600
 2336WAT      O 7218   2.516   4.814   5.311  0.7189  0.4750  0.5431
 2336WAT     H1 7219   2.425   4.846   5.307 -0.2456 -1.9784  1.2439
 2336WAT     H2 7220   2.549   4.827   5.222 -1.5269 -1.7209 -0.7578
 2337WAT      O 7221   3.686   5.183   5.335  0.1408 -0.4809 -0.3691
 2337WAT     H1 7222   3.762   5.130   5.356  0.2708 -0.5503 -0.9882
 2337WAT     H2 7223   3.719   5.272   5.328 -0.1815 -0.1953  1.2701
 2338WAT      O 7224   2.392   2.100   0.310  0.1076  0.0433  0.3823
 2338WAT     H1 7225   2.400   2.191   0.281  1.7704 -0.2908 -0.2879
 2338WAT     H2 7226   2.313   2.100   0.364  0.1014  1.9003  0.4502
 2339WAT      O 7227   3.203   0.661   3.389  0.0109  0.3866 -0.3876
 2339WAT     H1 7228   3.186   0.571   3.360  1.6583 -0.6189  1.5259
 2339WAT     H2 7229   3.295   0.676   3.368  1.0287 -0.0581  3.1888
 2340WAT      O 7230   1.186   1.484   1.933 -0.2959 -0.3588 -0.2013
 2340WAT     H1 7231   1.108   1.475   1.878 -0.0785  1.9421 -0.9634
 2340WAT     H2 7232   1.220   1.571   1.913  1.8733 -0.8827  0.9261
 2341WAT      O 7233   1.503   2.352   0.091 -0.1919  0.0313 -0.3170
 2341WAT     H1 7234   1.469   2.439   0.070  1.5588  0.3658 -2.0743
 2341WAT     H2 7235   1.567   2.368   0.161 -0.6438 -0.0318  0.1227
 2342WAT      O 7236   1.351   3.692   3.795  0.0724 -0.6815 -0.7334
 2342WAT     H1 7237   1.384   3.693   3.705 -0.0656 -0.2909 -0.7842
 2342WAT     H2 7238   1.260   3.663   3.787 -0.5352  1.1217 -0.9497
 2343WAT      O 7239   3.751   1.322   3.762  0.3645  0.2445  0.5085
 2343WAT     H1 7240   3.727   1.399   3.813  0.8493  0.5102  0.3436
 2343WAT     H2 7241   3.812   1.355   3.696  0.0345 -0.1616 -0.0054
 2344WAT      O 7242   4.963   4.850   2.373 -0.3137  0.1493  0.0246
 2344WAT     H1 7243   5.010   4.806   2.443 -0.6194 -0.3914 -0.1039
 2344WAT     H2 7244   4.904   4.911   2.417 -1.0858 -0.7635  0.2775
 2345WAT      O 7245   2.908   1.308   2.905  0.3261 -0.1100 -0.1234
 2345WAT     H1 7246   2.984   1.362   2.885  0.5855  0.0466  1.1920
 2345WAT     H2 7247   2.845   1.328   2.835 -0.0126  2.7310  0.8372
 2346WAT      O 7248   3.633   2.363   4.999 -0.2455  0.7143 -0.0942
 2346WAT     H1 7249   3.603   2.344   5.088 -0.4382 -0.9814 -0.4880
 2346WAT     H2 7250   3.587   2.444   4.976  0.8688  1.9656  1.8126
 2347WAT      O 7251   2.653   2.610   0.730 -0.1446  0.1503  0.3916
 2347WAT     H1 7252   2.674   2.689   0.678 -3.5001  0.6069 -0.4807
 2347WAT     H2 7253   2.695   2.539   0.682  0.1389  1.0296 -0.7177
 2348WAT      O 7254   2.070   0.745   2.931  0.2643  0.6936 -0.0231
 2348WAT     H1 7255   1.984   0.772   2.962 -0.4607 -2.6739  1.3522
 2348WAT     H2 7256   2.055   0.717   2.840 -0.4034 -0.9000  0.5472
 2349WAT      O 7257   0.268   3.771   4.806  0.0403  0.1989  0.3143
 2349WAT     H1 7258   0.267   3.792   4.713  0.9257 -1.1866 -0.0477
 2349WAT     H2 7259   0.217   3.840   4.847 -0.6915  0.6247 -1.2395
 2350WAT      O 7260   3.789   2.394   4.458 -0.2476 -0.5915 -0.1079
 2350WAT     H1 7261   3.825   2.435   4.536 -1.6993 -0.9912  0.8149
 2350WAT     H2 7262   3.806   2.300   4.470 -1.0930 -0.7285  0.0886
 2351WAT      O 7263   2.265   3.289   4.730  1.0060  0.2314 -0.5319
 2351WAT     H1 7264   2.325   3.309   4.658  0.2553  0.6979 -1.0458
 2351WAT     H2 7265   2.220   3.209   4.702  1.0614  0.1362 -0.3522
 2352WAT      O 7266   3.122   2.897   0.285  0.1580  0.2636  0.1975
 2352WAT     H1 7267   3.152   2.814   0.322 -1.5242 -0.3396  0.2750
 2352WAT     H2 7268   3.075   2.873   0.205  3.0625  1.4826 -2.0817
 2353WAT      O 7269   2.754   1.784   0.766  0.0195  0.3821  0.1135
 2353WAT     H1 7270   2.699   1.778   0.688 -0.7758 -0.6483  0.7324
 2353WAT     H2 7271   2.718   1.857   0.816  0.7468  1.2724 -0.6166
 2354WAT      O 7272   3.381   4.909   5.546  0.0039  0.2350  0.0700
 2354WAT     H1 7273   3.423   4.828   5.519 -0.4564 -0.1422  0.4684
 2354WAT     H2 7274   3.423   4.977   5.493  1.1162 -0.1282  0.4623
 2355WAT      O 7275   4.717   5.271   4.117  0.3064  0.1379  0.0600
 2355WAT     H1 7276   4.723   5.354   4.069  0.3337  0.0086 -0.1613
 2355WAT     H2 7277   4.728   5.296   4.209  0.3665  0.3732 -0.0092
 2356WAT      O 7278   2.460   1.907   4.627  0.7227 -0.0678 -0.3954
 2356WAT     H1 7279   2.466   1.814   4.646  2.3865  0.0282 -0.2810
 2356WAT     H2 7280   2.525   1.947   4.685  0.6924  1.0495 -1.1035
 2357WAT      O 7281   3.599   4.431   4.272 -0.4228  0.0216  0.7334
 2357WAT     H1 7282   3.599   4.510   4.218  0.3103  0.3989  1.2753
 2357WAT     H2 7283   3.685   4.391   4.256 -0.7292 -0.5915  0.5779
 2358WAT      O 7284   2.488   4.646   1.284 -0.3090  0.1975 -0.2079
 2358WAT     H1 7285   2.521   4.557   1.295 -0.1027  0.4377  1.4712
 2358WAT     H2 7286   2.561   4.702   1.309 -0.7811  0.8091 -0.1715
 2359WAT      O 7287   2.878   2.069   2.988 -0.2275  0.2312  0.3622
 2359WAT     H1 7288   2.909   2.139   2.930 -0.6186  0.6935  0.7072
 2359WAT     H2 7289   2.808   2.109   3.039 -2.3479 -1.1350 -1.3162
 2360WAT      O 7290   0.770   1.893   4.188 -0.6996 -0.6537  0.0301
 2360WAT     H1 7291   0.844   1.920   4.134 -0.9840  0.8122  0.3251
 2360WAT     H2 7292   0.693   1.920   4.138 -0.9998 -0.9164  0.3482
 2361WAT      O 7293   3.570   5.640   2.615 -0.3223  0.2885  0.4362
 2361WAT     H1 7294   3.619   5.709   2.569  0.8965  0.2335  1.5962
 2361WAT     H2 7295   3.638   5.583   2.651 -1.2635 -0.1490  1.5653
 2362WAT      O 7296   4.358   4.033   3.805  0.4613 -0.3490 -0.4162
 2362WAT     H1 7297   4.396   4.080   3.879 -1.2164  0.5090 -0.0572
 2362WAT     H2 7298   4.272   4.072   3.793  0.8469 -0.1220 -3.1611
 2363WAT      O 7299   3.584   0.561   3.560 -0.0890 -0.3305  0.5548
 2363WAT     H1 7300   3.679   0.571   3.568 -0.2197  1.1992  0.5600
 2363WAT     H2 7301   3.565   0.477   3.601  1.1749 -0.2857  1.2987
 2364WAT      O 7302   3.553   5.442   3.266  0.2091 -0.1144 -0.3879
 2364WAT     H1 7303   3.496   5.501   3.216  1.4096  0.5804 -1.0245
 2364WAT     H2 7304   3.642   5.471   3.243  0.8720 -2.4758 -1.0816
 2365WAT      O 7305   2.847   0.299   0.494  0.3160  0.6034  0.1684
 2365WAT     H1 7306   2.800   0.382   0.497  0.3054  0.6537 -0.8910
 2365WAT     H2 7307   2.785   0.235   0.529 -0.4723  0.7134 -0.9436
 2366WAT      O 7308   3.073   5.670   4.704 -0.5043  0.4987 -0.1674
 2366WAT     H1 7309   3.020   5.681   4.625 -0.9899  0.6483  0.1711
 2366WAT     H2 7310   3.058   5.579   4.730 -0.4076  0.4715 -0.2101
 2367WAT      O 7311   2.559   2.999   0.668 -0.4882  0.7348 -0.3969
 2367WAT     H1 7312   2.582   3.080   0.621  1.3334  0.7709  0.4772
 2367WAT     H2 7313   2.632   2.940   0.650  0.5902  0.9308  2.7179
 2368WAT      O 7314   2.069   0.417   3.942  0.3135  0.8283 -0.3728
 2368WAT     H1 7315   2.053   0.348   4.005 -0.3760  1.3226  0.0125
 2368WAT     H2 7316   2.060   0.374   3.857  1.3730  0.1341 -0.1489
 2369WAT      O 7317   4.890   4.276   3.525 -0.4593  0.8621  0.4586
 2369WAT     H1 7318   4.915   4.324   3.604 -0.1385  0.9012  0.3330
 2369WAT     H2 7319   4.817   4.327   3.488 -0.1228  1.2513  0.3298
 2370WAT      O 7320   2.541   3.466   5.681  0.7002 -0.2873 -0.4265
 2370WAT     H1 7321   2.498   3.545   5.647 -0.4830 -0.7776 -0.1010
 2370WAT     H2 7322   2.529   3.401   5.612  0.9324 -0.4254 -0.3351
 2371WAT      O 7323   2.312   2.202   5.088 -0.0063  0.0338  0.3131
 2371WAT     H1 7324   2.292   2.145   5.014  3.2646  0.4744 -1.1128
 2371WAT     H2 7325   2.240   2.265   5.091 -1.2570 -1.2521 -1.1381
 2372WAT      O 7326   4.227   4.598   2.823  0.4106 -0.0317  0.0209
 2372WAT     H1 7327   4.270   4.653   2.758 -0.1611  0.1294 -0.2312
 2372WAT     H2 7328   4.268   4.512   2.814  1.1988  0.3090  0.3080
 2373WAT      O 7329   3.407   4.450   0.453  0.2894  0.1043 -0.5728
 2373WAT     H1 7330   3.334   4.461   0.514 -0.7942 -0.7111 -1.6606
 2373WAT     H2 7331   3.381   4.499   0.375  0.8169 -0.3509 -1.0462
 2374WAT      O 7332   2.516   4.618   4.350 -0.8029 -0.5119 -0.6735
 2374WAT     H1 7333   2.501   4.524   4.349 -1.3125 -0.7795  4.2833
 2374WAT     H2 7334   2.605   4.628   4.384 -1.2501  0.6942  0.2561
 2375WAT      O 7335   2.986   0.065   3.428  0.4349  0.5871 -0.4131
 2375WAT     H1 7336   2.894   0.060   3.404 -0.1279 -0.3933  1.7204
 2375WAT     H2 7337   3.010   0.156   3.411 -1.1156  1.0389 -0.3526
 2376WAT      O 7338   4.217   0.076   4.781  0.0778 -0.6212  0.8614
 2376WAT     H1 7339   4.147   0.138   4.764  0.4323 -0.0765  1.3804
 2376WAT     H2 7340   4.245   0.047   4.694  0.8448  0.9859  0.5464
 2377WAT      O 7341   3.270   1.693   0.245  0.1405 -0.2901  0.2543
 2377WAT     H1 7342   3.177   1.717   0.242 -0.2326 -1.7520 -1.2749
 2377WAT     H2 7343   3.284   1.665   0.336 -0.4939  1.3646  0.9051
 2378WAT      O 7344   1.660   2.734   0.150  0.3941 -0.1509  0.2733
 2378WAT     H1 7345   1.598   2.795   0.110  0.1277  0.0382  0.9607
 2378WAT     H2 7346   1.737   2.788   0.170  0.4841 -0.2201  0.1084
 2379WAT      O 7347   0.517   5.311   3.164  0.0281 -0.0011  0.1047
 2379WAT     H1 7348   0.534   5.318   3.258  0.0421 -1.4331  0.2369
 2379WAT     H2 7349   0.467   5.230   3.156  1.0085 -0.4973 -1.2445
 2380WAT      O 7350   3.406   0.098   5.196 -0.1993 -0.3370  0.8521
 2380WAT     H1 7351   3.442   0.079   5.283 -0.9377 -0.2298  1.1843
 2380WAT     H2 7352   3.435   0.187   5.176 -1.1132  0.1271  1.5545
 2381WAT      O 7353   2.521   0.686   3.864 -0.4530 -0.5397 -0.4009
 2381WAT     H1 7354   2.522   0.767   3.812  0.3370 -1.3242 -1.6594
 2381WAT     H2 7355   2.427   0.668   3.876 -0.6417  0.5612 -0.0764
 2382WAT      O 7356   0.535   2.718   3.597  0.5969  0.4428 -0.4608
 2382WAT     H1 7357   0.536   2.716   3.502 -0.6440 -1.3953 -0.4838
 2382WAT     H2 7358   0.503   2.632   3.623  0.4639  1.0523  1.6241
 2383WAT      O 7359   0.703   5.041   3.578 -0.2740  0.5548  0.3095
 2383WAT     H1 7360   0.783   5.066   3.624 -1.1505  0.1573  2.1352
 2383WAT     H2 7361   0.661   4.976   3.635 -1.7625  0.5439 -0.7267
 2384WAT      O 7362   0.426   4.345   4.314 -0.8320  0.0829  0.5216
 2384WAT     H1 7363   0.463   4.284   4.250 -1.9211 -0.6589  0.5781
 2384WAT     H2 7364   0.494   4.353   4.382 -0.5085 -0.7348  0.2988
 2385WAT      O 7365   0.799   2.637   3.946  0.2378 -0.4080 -0.6568
 2385WAT     H1 7366   0.826   2.634   4.038 -1.8264 -0.3655  0.0151
 2385WAT     H2 7367   0.867   2.688   3.903  0.3583  1.1374  1.2222
 2386WAT      O 7368   3.297   4.994   3.886 -0.2005 -0.9547 -0.0653
 2386WAT     H1 7369   3.223   4.934   3.893 -0.9324 -0.1505 -0.6570
 2386WAT     H2 7370   3.299   5.039   3.970  0.2331 -1.6558  0.3107
 2387WAT      O 7371   4.098   1.955   4.656  0.2762  0.2528  0.0381
 2387WAT     H1 7372   4.189   1.954   4.627  0.1526  0.5229 -0.3688
 2387WAT     H2 7373   4.084   1.868   4.693  1.4548  1.0270  2.5204
 2388WAT      O 7374   3.528   4.681   5.498  0.1726  0.0271  0.0092
 2388WAT     H1 7375   3.508   4.587   5.505  1.9727 -0.3019  1.2359
 2388WAT     H2 7376   3.621   4.687   5.518  0.5097  1.9013 -1.7785
 2389WAT      O 7377   3.872   5.053   4.104  0.4745  0.0183  0.5256
 2389WAT     H1 7378   3.951   5.031   4.153 -0.8280 -0.3398  2.5662
 2389WAT     H2 7379   3.817   5.099   4.166 -1.5725 -1.1138 -0.3517
 2390WAT      O 7380   2.899   1.001   3.325  0.2942  0.3735  0.0943
 2390WAT     H1 7381   2.957   1.075   3.310  1.6657 -0.3930  1.3006
 2390WAT     H2 7382   2.834   1.034   3.387  0.0413  0.9628 -0.4800
 2391WAT      O 7383   0.483   4.932   4.965 -0.2158 -0.2875 -0.1589
 2391WAT     H1 7384   0.475   4.838   4.954 -2.6650  0.0577 -2.1518
 2391WAT     H2 7385   0.565   4.944   5.013 -0.2652 -3.4334  0.9062
 2392WAT      O 7386   1.318   3.888   0.486  0.0420 -0.2835 -0.1072
 2392WAT     H1 7387   1.274   3.918   0.407 -1.5413  1.0239  1.1987
 2392WAT     H2 7388   1.408   3.921   0.478 -0.3510  0.6084 -0.9428
 2393WAT      O 7389   0.528   5.291   3.798 -0.5470 -0.0706 -0.0281
 2393WAT     H1 7390   0.469   5.337   3.738 -2.8490 -1.9069  0.6854
 2393WAT     H2 7391   0.531   5.201   3.764  0.5284 -0.4039  0.8962
 2394WAT      O 7392   1.746   1.341   3.681  0.4649  0.0717 -0.0802
 2394WAT     H1 7393   1.708   1.375   3.600  0.6903 -0.0843 -0.2545
 2394WAT     H2 7394   1.838   1.326   3.660  0.4880 -0.1322  0.1548
 2395WAT      O 7395   4.952   5.424   3.310 -0.1410 -0.4293  0.0835
 2395WAT     H1 7396   4.865   5.422   3.349 -0.0771 -0.6393  0.2172
 2395WAT     H2 7397   4.953   5.351   3.248  0.7587 -2.0236  1.8602
 2396WAT      O 7398   1.509   2.449   3.174  0.2195 -0.2320  0.2627
 2396WAT     H1 7399   1.472   2.516   3.232  2.8836  1.3991  0.2531
 2396WAT     H2 7400   1.480   2.474   3.087 -0.6234 -0.4205  0.4818
 2397WAT      O 7401   1.899   4.967   1.820 -0.0774  0.4153 -0.8301
 2397WAT     H1 7402   1.919   5.045   1.872 -1.0912  0.1612 -0.0376
 2397WAT     H2 7403   1.837   4.997   1.753 -0.9313  0.1856 -0.1577
 2398WAT      O 7404   2.534   1.207   4.173 -0.3758 -0.4400 -0.2742
 2398WAT     H1 7405   2.467   1.274   4.160  0.0405 -0.0169 -0.2385
 2398WAT     H2 7406   2.612   1.241   4.129  0.3664 -0.0698  1.2383
 2399WAT      O 7407   3.281   4.047   3.777  0.0461 -0.0077  0.5216
 2399WAT     H1 7408   3.234   4.125   3.806  2.5618  1.8561 -0.0867
 2399WAT     H2 7409   3.249   4.031   3.688  0.6675  1.3208  0.0501
 2400WAT      O 7410   1.035   2.209   3.180 -0.2625  0.0392 -0.6060
 2400WAT     H1 7411   0.946   2.209   3.145  0.0027  0.1355 -1.2997
 2400WAT     H2 7412   1.051   2.117   3.202 -1.4659  0.3775  2.0211
 2401WAT      O 7413   4.413   1.291   4.820 -0.0541  0.4330  0.3409
 2401WAT     H1 7414   4.348   1.275   4.888 -2.5691 -1.7633 -2.2960
 2401WAT     H2 7415   4.494   1.254   4.855 -1.3325 -1.0026  1.9662
 2402WAT      O 7416   4.668   4.204   5.070 -0.0783 -0.4587 -0.5030
 2402WAT     H1 7417   4.590   4.163   5.030 -0.8895  1.3022 -0.8395
 2402WAT     H2 7418   4.638   4.233   5.156 -0.2967  1.5473 -1.1946
 2403WAT      O 7419   3.052   1.836   0.071 -0.3770 -0.1257 -0.5878
 2403WAT     H1 7420   3.054   1.923   0.110  0.7809  0.4416 -1.8375
 2403WAT     H2 7421   2.963   1.805   0.088 -1.4134  2.0338 -1.6867
 2404WAT      O 7422   2.209   5.367   4.741  0.4294 -0.0572  0.6802
 2404WAT     H1 7423   2.178   5.456   4.757  1.7886  0.7804 -0.9407
 2404WAT     H2 7424   2.235   5.335   4.827  0.6150  1.4059  1.2005
 2405WAT      O 7425   3.855   4.010   3.527  0.1735  0.4617  0.0790
 2405WAT     H1 7426   3.877   4.103   3.521  0.3774  0.4531  0.6801
 2405WAT     H2 7427   3.796   4.004   3.602 -0.6291  0.2484 -0.5545
 2406WAT      O 7428   0.327   3.859   4.026  0.0714 -0.5222 -0.0982
 2406WAT     H1 7429   0.414   3.867   3.986 -0.6335  0.1524 -1.5315
 2406WAT     H2 7430   0.284   3.791   3.975 -0.7037  0.0696 -0.2372
 2407WAT      O 7431   2.175   3.552   5.681  0.3165  0.2409  0.2259
 2407WAT     H1 7432   2.112   3.587   5.618  0.8035  0.6147 -0.0556
 2407WAT     H2 7433   2.249   3.612   5.677  1.1871 -0.8257 -0.2876
 2408WAT      O 7434   0.871   1.196   4.009 -0.2224  0.2440 -0.2496
 2408WAT     H1 7435   0.923   1.194   3.929 -0.5012  0.3993 -0.4397
 2408WAT     H2 7436   0.926   1.242   4.073 -0.0432  0.2165 -0.3837
 2409WAT      O 7437   2.932   3.400   4.988  0.2174  0.1404  0.3411
 2409WAT     H1 7438   2.849   3.433   5.021 -0.1185  1.1974 -1.4280
 2409WAT     H2 7439   2.976   3.478   4.953  1.1028 -0.6962 -0.4671
 2410WAT      O 7440   4.504   0.153   4.335 -0.1931  0.0584 -0.4073
 2410WAT     H1 7441   4.565   0.226   4.341  0.7473 -0.6649 -0.7969
 2410WAT     H2 7442   4.509   0.110   4.420 -1.3133  0.8624  0.0848
 2411WAT      O 7443   2.559   0.317   5.176  0.0024  0.1212  0.0631
 2411WAT     H1 7444   2.521   0.315   5.088  0.5477  1.9857 -0.2524
 2411WAT     H2 7445   2.652   0.302   5.162  0.4930  2.7709 -0.0053
 2412WAT      O 7446   1.250   3.932   3.506 -0.7439 -0.7441  0.4733
 2412WAT     H1 7447   1.292   3.847   3.522  0.8223  0.0427  0.7850
 2412WAT     H2 7448   1.232   3.933   3.412  0.5183 -0.8951  0.2119
 2413WAT      O 7449   2.774   5.518   3.006  0.4679 -0.1094  0.2479
 2413WAT     H1 7450   2.768   5.610   3.031 -1.0954 -0.0255 -0.3649
 2413WAT     H2 7451   2.730   5.513   2.922 -1.5650 -1.7988  1.3228
 2414WAT      O 7452   2.344   3.841   4.142  0.5515  0.1166  0.0835
 2414WAT     H1 7453   2.285   3.768   4.161 -0.6133  1.3926  1.6402
 2414WAT     H2 7454   2.304   3.885   4.067  1.1460 -0.6972 -0.7288
 2415WAT      O 7455   1.415   1.057   4.366 -0.0647 -0.4733 -0.0694
 2415WAT     H1 7456   1.456   1.129   4.414  0.4028  0.4455 -1.7567
 2415WAT     H2 7457   1.386   1.097   4.284 -1.1150 -1.9044 -0.4241
 2416WAT      O 7458   1.166   5.220   3.245 -0.4650  0.1509 -0.5701
 2416WAT     H1 7459   1.100   5.206   3.312 -0.3647  1.9435 -0.0567
 2416WAT     H2 7460   1.240   5.166   3.272 -0.7146  0.2551  0.3370
 2417WAT      O 7461   3.621   2.445   2.046 -0.1785 -0.3827 -0.3046
 2417WAT     H1 7462   3.594   2.357   2.071  0.4558 -0.4808  0.0548
 2417WAT     H2 7463   3.717   2.442   2.046 -0.0329  1.0693  2.6260
 2418WAT      O 7464   1.282   2.275   4.409  0.6258  0.1580  0.1104
 2418WAT     H1 7465   1.214   2.342   4.410 -0.2005 -0.6704  1.3794
 2418WAT     H2 7466   1.238   2.195   4.436  2.2000 -0.2952  1.5249
 2419WAT      O 7467   4.532   0.085   4.599 -0.4272 -0.2370  0.0731
 2419WAT     H1 7468   4.575   0.163   4.633 -0.7923 -0.2109  0.4887
 2419WAT     H2 7469   4.557   0.015   4.660 -1.3468 -0.1229  0.6022
 2420WAT      O 7470   3.764   2.135   3.818  0.0244  0.1591 -0.5311
 2420WAT     H1 7471   3.691   2.087   3.781 -0.0479 -0.6291  0.5828
 2420WAT     H2 7472   3.816   2.163   3.742 -0.5089 -0.7441 -1.2413
 2421WAT      O 7473   0.905   1.814   2.296 -0.3276  0.7029  0.0503
 2421WAT     H1 7474   0.829   1.850   2.342 -0.6546 -0.8696  0.7990
 2421WAT     H2 7475   0.885   1.827   2.204 -0.9518  1.3966  0.2710
 2422WAT      O 7476   3.501   0.524   5.002 -0.1318  0.6712  0.4751
 2422WAT     H1 7477   3.412   0.535   4.967 -0.6914 -0.0131  1.6107
 2422WAT     H2 7478   3.488   0.516   5.096  1.0841 -0.0731  0.5966
 2423WAT      O 7479   2.552   1.452   0.053 -0.1664  0.2416  0.8462
 2423WAT     H1 7480   2.489   1.417  -0.009 -0.2649  0.7975  0.6224
 2423WAT     H2 7481   2.566   1.542   0.024  0.4954  0.2181  1.0773
 2424WAT      O 7482   3.258   0.272   5.013 -0.5796 -0.2568  0.2203
 2424WAT     H1 7483   3.235   0.348   4.959 -2.2700  0.2761  1.5696
 2424WAT     H2 7484   3.248   0.303   5.103  0.3269 -1.6315  0.8272
 2425WAT      O 7485   3.312   0.304   2.763 -0.2368  0.0421 -0.2356
 2425WAT     H1 7486   3.264   0.315   2.681 -0.5060  0.7311  0.0055
 2425WAT     H2 7487   3.368   0.382   2.768 -0.2565  0.0279  0.2537
 2426WAT      O 7488   2.749   3.764   0.178 -0.2617  0.2231 -0.6477
 2426WAT     H1 7489   2.845   3.761   0.180 -0.2795 -0.5865  0.6528
 2426WAT     H2 7490   2.726   3.832   0.241 -0.5430 -0.4317 -0.0294
 2427WAT      O 7491   0.392   5.043   3.743 -0.5302 -0.1762  0.4673
 2427WAT     H1 7492   0.454   4.978   3.709  2.9254  1.1153  3.5719
 2427WAT     H2 7493   0.357   5.003   3.823 -1.7498  0.1714  0.1307
 2428WAT      O 7494   1.906   3.302   3.957 -0.1732 -0.0677  0.4443
 2428WAT     H1 7495   1.871   3.391   3.965  0.9828  0.2750  2.6076
 2428WAT     H2 7496   1.865   3.254   4.029  1.1496 -0.5614  0.8983
 2429WAT      O 7497   2.448   0.420   0.434  0.2424 -0.4507 -0.6294
 2429WAT     H1 7498   2.423   0.387   0.520  1.4216  2.1803  0.8395
 2429WAT     H2 7499   2.366   0.424   0.385 -0.5418 -1.4751  0.5343
 2430WAT      O 7500   2.708   1.392   3.792  0.8628  0.2256 -0.0065
 2430WAT     H1 7501   2.783   1.451   3.784  0.4430  0.4666 -3.6193
 2430WAT     H2 7502   2.670   1.389   3.704 -1.2382 -2.7011  0.8529
 2431WAT      O 7503   0.145   0.502   4.775 -0.1217 -0.5162 -0.1713
 2431WAT     H1 7504   0.118   0.584   4.735 -0.7527 -0.3723  0.5297
 2431WAT     H2 7505   0.138   0.518   4.869  0.1736 -1.2326 -0.0194
 2432WAT      O 7506   2.280   0.585   3.728  0.1236 -0.5111 -0.2288
 2432WAT     H1 7507   2.276   0.493   3.699  1.4738 -0.7284  0.1826
 2432WAT     H2 7508   2.216   0.591   3.798  0.5811 -1.3592  0.2787
 2433WAT      O 7509   2.660   0.806   4.129 -0.5811 -0.1723  0.2153
 2433WAT     H1 7510   2.632   0.720   4.098 -1.3485 -0.4248  1.5538
 2433WAT     H2 7511   2.585   0.863   4.111 -0.6651 -0.1203  0.7083
 2434WAT      O 7512   2.350   1.601   2.132 -0.0549 -1.0833 -0.1703
 2434WAT     H1 7513   2.312   1.602   2.220  1.4322 -1.3438  0.4909
 2434WAT     H2 7514   2.358   1.693   2.108 -1.8189 -1.0149 -0.6714
 2435WAT      O 7515   2.996   0.225   4.339  0.6240 -0.6817  0.0547
 2435WAT     H1 7516   3.087   0.209   4.367  0.7230 -0.6897 -0.2748
 2435WAT     H2 7517   3.004   0.263   4.252  0.3241 -0.3213  0.1835
 2436WAT      O 7518   2.067   1.325   0.733 -0.2008  0.4068  0.1537
 2436WAT     H1 7519   2.051   1.358   0.821 -0.3243 -1.6177  0.9550
 2436WAT     H2 7520   1.982   1.288   0.707 -0.0812  0.7204 -0.7045
 2437WAT      O 7521   1.746   1.367   2.073 -0.3648  0.4505  0.4375
 2437WAT     H1 7522   1.794   1.410   2.003 -0.8546 -0.1635 -0.3045
 2437WAT     H2 7523   1.775   1.276   2.069 -2.7267 -0.3433 -1.1591
 2438WAT      O 7524   0.499   4.956   1.863  0.0891 -0.0777  0.3352
 2438WAT     H1 7525   0.475   4.873   1.822  0.8856  0.2884 -0.9129
 2438WAT     H2 7526   0.594   4.961   1.854  0.1217  0.6784  0.9772
 2439WAT      O 7527   0.246   1.113   3.014 -0.1857 -0.2944  0.3776
 2439WAT     H1 7528   0.321   1.164   3.046 -0.7891  0.8740 -0.0432
 2439WAT     H2 7529   0.266   1.096   2.922 -0.6716  0.4539  0.1330
 2440WAT      O 7530   3.358   0.769   1.550  0.2777 -0.4379  0.2922
 2440WAT     H1 7531   3.339   0.715   1.626  0.7358 -1.3968 -0.2562
 2440WAT     H2 7532   3.438   0.817   1.574 -0.0207 -0.1337  0.7030
 2441WAT      O 7533   1.152   4.890   4.125 -0.0067 -0.6667  0.3701
 2441WAT     H1 7534   1.189   4.897   4.213  1.1180 -0.8517 -0.0826
 2441WAT     H2 7535   1.097   4.811   4.129 -0.5712 -0.2523  1.1091
 2442WAT      O 7536   2.549   0.951   3.217 -0.3383  0.7482  0.1970
 2442WAT     H1 7537   2.500   1.007   3.277  0.7354  0.5937  1.2401
 2442WAT     H2 7538   2.482   0.910   3.163 -1.1918  2.7361 -0.3575
 2443WAT      O 7539   1.900   2.421   3.924  0.2686 -0.3026 -0.4555
 2443WAT     H1 7540   1.873   2.349   3.980  0.6428  0.3424  0.5893
 2443WAT     H2 7541   1.914   2.494   3.984 -1.7609  1.1572 -1.6331
 2444WAT      O 7542   4.848   0.108   1.849  0.4418 -0.0401 -0.6263
 2444WAT     H1 7543   4.920   0.170   1.837 -0.0010  0.9823  1.4285
 2444WAT     H2 7544   4.769   0.159   1.829  0.2215 -1.2583 -3.2423
 2445WAT      O 7545   3.623   5.539   2.992 -0.4582 -0.1498 -0.6199
 2445WAT     H1 7546   3.714   5.567   2.984 -0.7663  1.0098 -0.2813
 2445WAT     H2 7547   3.611   5.474   2.923  0.7841 -0.7527 -0.2845
 2446WAT      O 7548   4.607   0.589   2.384  0.2398  0.3185  0.7258
 2446WAT     H1 7549   4.525   0.539   2.387  0.4255 -0.1009 -0.6956
 2446WAT     H2 7550   4.675   0.524   2.399  0.3924  0.4215  0.4772
 2447WAT      O 7551   3.335   4.381   3.598 -0.1326  0.1608 -0.3228
 2447WAT     H1 7552   3.312   4.339   3.681 -0.1272  0.7513 -0.0228
 2447WAT     H2 7553   3.429   4.370   3.590  0.2277  2.1102  0.8702
 2448WAT      O 7554   3.236   1.450   2.565  0.0051 -0.0610 -0.1093
 2448WAT     H1 7555   3.249   1.467   2.472  2.0379  0.3927  0.2141
 2448WAT     H2 7556   3.280   1.366   2.581 -0.6947 -0.3537  0.3837
 2449WAT      O 7557   2.577   0.828   2.128  0.3128 -0.5368 -0.0277
 2449WAT     H1 7558   2.573   0.908   2.076 -0.0003 -0.7170 -0.2858
 2449WAT     H2 7559   2.578   0.758   2.064  1.1200 -0.7295  0.1874
 2450WAT      O 7560   2.785   0.287   2.887  0.5069 -0.5408  0.1014
 2450WAT     H1 7561   2.869   0.268   2.929  1.5754 -1.1149 -2.1887
 2450WAT     H2 7562   2.805   0.357   2.824 -0.3929 -1.6798 -1.4946
 2451WAT      O 7563   1.169   2.025   4.458  0.2513 -0.2128  0.8689
 2451WAT     H1 7564   1.103   1.956   4.457  0.1590 -0.1836 -1.6335
 2451WAT     H2 7565   1.234   1.998   4.393  0.6706  1.5965  0.4550
 2452WAT      O 7566   2.214   0.946   3.999 -0.5523 -0.1913  0.7033
 2452WAT     H1 7567   2.178   0.873   3.949 -0.1847 -0.3289  0.6361
 2452WAT     H2 7568   2.210   0.916   4.090  0.1538 -0.5448  0.6268
 2453WAT      O 7569   3.585   5.152   3.900 -0.8877 -0.2740  0.3908
 2453WAT     H1 7570   3.550   5.180   3.985  0.1998  3.6410 -0.2469
 2453WAT     H2 7571   3.514   5.169   3.838 -0.7662 -0.5322  0.1820
 2454WAT      O 7572   1.581   2.860   1.228  0.0373  0.7820 -0.1768
 2454WAT     H1 7573   1.523   2.931   1.199  1.4221  2.0657  0.0906
 2454WAT     H2 7574   1.542   2.830   1.311 -1.4427  0.1026 -1.0681
 2455WAT      O 7575   4.587   5.646   2.941 -0.2956 -0.0617 -0.1012
 2455WAT     H1 7576   4.573   5.556   2.911 -0.0782  0.6025 -2.3254
 2455WAT     H2 7577   4.547   5.648   3.028  0.1656 -2.4390  0.2305
 2456WAT      O 7578   2.430   1.589   0.791 -0.0542 -0.1484 -0.1286
 2456WAT     H1 7579   2.373   1.660   0.761  1.8273  1.9827  0.9605
 2456WAT     H2 7580   2.390   1.559   0.873 -0.2501  0.4967  0.0168
 2457WAT      O 7581   0.057   4.122   2.665  0.2546 -0.5764 -0.1975
 2457WAT     H1 7582   0.034   4.191   2.603  1.8601 -0.8074 -1.1211
 2457WAT     H2 7583   0.069   4.044   2.611  0.7070 -1.0288  0.5295
 2458WAT      O 7584   3.507   4.707   1.348  0.7089  0.0129  0.2198
 2458WAT     H1 7585   3.548   4.640   1.402  1.6793 -0.1894 -0.7405
 2458WAT     H2 7586   3.451   4.658   1.287 -0.5543  0.2519  1.1369
 2459WAT      O 7587   3.499   5.574   2.109 -0.1298 -0.8049  0.8782
 2459WAT     H1 7588   3.510   5.597   2.201 -0.5949 -0.2768  0.8026
 2459WAT     H2 7589   3.424   5.515   2.108 -0.1358 -0.7962  0.8340
 2460WAT      O 7590   4.185   0.968   2.708 -0.3163 -0.0084  0.5897
 2460WAT     H1 7591   4.102   0.921   2.703  0.5154 -1.5373  0.3799
 2460WAT     H2 7592   4.195   0.992   2.800 -2.0798  2.3443  0.2520
 2461WAT      O 7593   3.420   0.165   5.457 -0.6402 -0.1523 -0.6512
 2461WAT     H1 7594   3.412   0.234   5.392 -0.0763  1.5746  1.0129
 2461WAT     H2 7595   3.403   0.209   5.541 -3.6084 -2.7250  0.2716
 2462WAT      O 7596   0.587   1.054   3.222 -0.3342  0.2051 -0.1673
 2462WAT     H1 7597   0.584   1.105   3.141 -0.3690  0.0569 -0.2587
 2462WAT     H2 7598   0.577   0.963   3.194 -1.3816  0.2266  0.0988
 2463WAT      O 7599   2.810   0.227   5.084 -0.8022  0.2242 -0.1647
 2463WAT     H1 7600   2.847   0.273   5.009 -1.1900  0.7873 -0.0126
 2463WAT     H2 7601   2.886   0.204   5.137 -0.6956  2.0567  0.5358
 2464WAT      O 7602   2.779   1.580   1.431  0.1700 -0.5524  0.0572
 2464WAT     H1 7603   2.865   1.578   1.474 -0.2644 -0.4815  0.9395
 2464WAT     H2 7604   2.740   1.663   1.460 -1.3817 -1.8867  2.0185
 2465WAT      O 7605   4.944   3.520   2.599 -0.2594 -0.0266 -0.2623
 2465WAT     H1 7606   4.851   3.539   2.593 -0.4516 -0.6518  0.4775
 2465WAT     H2 7607   4.951   3.428   2.573  0.2608  0.2353 -1.0757
 2466WAT      O 7608  -0.017   4.539   1.878 -0.0566  0.0848  0.2789
 2466WAT     H1 7609   0.071   4.535   1.840  0.0461 -0.1226  0.5405
 2466WAT     H2 7610  -0.036   4.450   1.906 -0.9959 -0.2229 -1.2009
 2467WAT      O 7611   4.397   2.082   4.155 -0.1789 -0.0993  0.1919
 2467WAT     H1 7612   4.343   2.031   4.094 -0.0827  2.2632 -2.0381
 2467WAT     H2 7613   4.347   2.081   4.237 -1.7065 -1.1164 -0.6873
 2468WAT      O 7614   1.926   3.164   2.323  0.3734 -0.1868 -0.2670
 2468WAT     H1 7615   1.999   3.222   2.300  1.1042 -1.9033 -2.6807
 2468WAT     H2 7616   1.848   3.219   2.316  1.2950  1.6755  2.3053
 2469WAT      O 7617   3.749   0.249   5.192  0.2463  0.1416  0.4829
 2469WAT     H1 7618   3.778   0.201   5.270  1.4458 -1.2599 -0.7764
 2469WAT     H2 7619   3.797   0.332   5.196 -0.4979  0.5414  1.7526
 2470WAT      O 7620   2.771   0.763   2.674 -0.0937  0.3556 -0.1051
 2470WAT     H1 7621   2.690   0.796   2.712 -1.2270 -0.9110 -1.2657
 2470WAT     H2 7622   2.765   0.785   2.581  1.0922  0.5979 -0.1402
 2471WAT      O 7623   4.531   4.509   2.670  0.3867 -0.4091 -0.4739
 2471WAT     H1 7624   4.597   4.443   2.648  1.9371  0.7016  0.6522
 2471WAT     H2 7625   4.458   4.458   2.707  0.5394 -1.6692 -1.8155
 2472WAT      O 7626   2.609   2.673   5.831 -0.2382  0.1389 -0.3825
 2472WAT     H1 7627   2.529   2.719   5.854 -0.8121 -1.0290  0.0278
 2472WAT     H2 7628   2.597   2.649   5.739 -0.9775 -1.2342  0.0545
 2473WAT      O 7629   1.908   0.861   4.111 -0.1739 -0.3269  0.1334
 2473WAT     H1 7630   1.865   0.780   4.140 -1.8789  0.3571 -0.3305
 2473WAT     H2 7631   1.894   0.923   4.182 -1.6958  0.4608 -0.7962
 2474WAT      O 7632   1.927   5.022   4.577 -0.6685  0.3797  0.6692
 2474WAT     H1 7633   2.015   5.056   4.558 -0.8813  0.7266  0.2945
 2474WAT     H2 7634   1.885   5.091   4.627 -1.3844  1.0416 -0.7938
 2475WAT      O 7635   2.597   4.300   4.146  0.3205 -0.2331  0.5164
 2475WAT     H1 7636   2.507   4.317   4.174  0.2258  1.2205 -0.5625
 2475WAT     H2 7637   2.590   4.225   4.087 -0.1889 -0.1124  0.4226
 2476WAT      O 7638   2.425   1.092   5.328  0.1567 -0.7549  0.2140
 2476WAT     H1 7639   2.390   1.138   5.252  2.4872  0.0932 -0.4573
 2476WAT     H2 7640   2.450   1.006   5.294  0.9295 -0.4786  0.0481
 2477WAT      O 7641   4.724   1.545   4.594  0.3374  0.6354  0.2501
 2477WAT     H1 7642   4.742   1.592   4.513 -1.3651 -1.4620 -1.4493
 2477WAT     H2 7643   4.810   1.511   4.621  0.5090 -1.5912 -2.6815
 2478WAT      O 7644   4.722   2.224   2.713 -0.2733  0.2068 -0.6151
 2478WAT     H1 7645   4.689   2.151   2.661  0.2469 -0.1849 -0.3998
 2478WAT     H2 7646   4.691   2.302   2.667  0.1874 -0.1364 -1.5252
 2479WAT      O 7647   2.834   5.500   3.922  0.0147  0.2865  0.1172
 2479WAT     H1 7648   2.832   5.594   3.940  2.2464  0.1580  1.5077
 2479WAT     H2 7649   2.888   5.463   3.993  0.6525 -1.7927 -1.3383
 2480WAT      O 7650   3.784   1.514   4.577 -0.2618  0.4731  0.5650
 2480WAT     H1 7651   3.862   1.463   4.554  0.0273  1.4227 -0.6322
 2480WAT     H2 7652   3.787   1.518   4.673  0.1347 -1.0609  0.6526
 2481WAT      O 7653   1.923   2.920   1.557  0.2500 -0.7727 -0.0520
 2481WAT     H1 7654   1.934   3.014   1.572 -2.6964 -0.1318 -1.1884
 2481WAT     H2 7655   1.938   2.910   1.463  0.8001 -1.5204  0.1077
 2482WAT      O 7656   1.271   2.618   3.159  0.1208  0.4024  0.0674
 2482WAT     H1 7657   1.275   2.617   3.254 -1.5297 -0.0231  0.1554
 2482WAT     H2 7658   1.255   2.527   3.134 -0.6663  0.6901 -0.5364
 2483WAT      O 7659   3.602   0.824   5.104  0.3181  0.2129 -0.0518
 2483WAT     H1 7660   3.604   0.735   5.140  1.0339  0.1747 -0.1636
 2483WAT     H2 7661   3.684   0.832   5.056  0.9186  1.3939  1.1048
 2484WAT      O 7662   2.882   0.786   4.291 -0.1684  0.5216  0.5004
 2484WAT     H1 7663   2.934   0.866   4.302 -1.3902  1.0496  3.6450
 2484WAT     H2 7664   2.807   0.812   4.238 -0.9550  1.7631  2.1212
 2485WAT      O 7665   3.202   0.494   0.455 -0.5357 -0.4962 -0.0646
 2485WAT     H1 7666   3.176   0.576   0.496  0.3429 -0.6269  0.7693
 2485WAT     H2 7667   3.169   0.426   0.513  1.2423 -0.6737  0.7898
 2486WAT      O 7668   0.783   4.841   4.993 -0.2538 -0.1226  0.1032
 2486WAT     H1 7669   0.765   4.901   5.066  0.1151 -0.0976  0.1755
 2486WAT     H2 7670   0.853   4.785   5.025 -0.4323 -0.4365 -0.0564
 2487WAT      O 7671   3.315   0.605   0.007 -0.1260 -0.4102  0.0105
 2487WAT     H1 7672   3.394   0.587   0.058 -0.4438  0.9556  1.0282
 2487WAT     H2 7673   3.243   0.599   0.070 -0.4272  2.4296  0.0838
 2488WAT      O 7674   2.140   5.449   3.483  0.7273 -0.5293  0.0345
 2488WAT     H1 7675   2.139   5.495   3.399 -0.3925 -1.8321 -0.7111
 2488WAT     H2 7676   2.147   5.518   3.548 -1.7145  0.8135 -0.9878
 2489WAT      O 7677   1.257   0.745   2.969 -0.1115 -0.4638 -0.2405
 2489WAT     H1 7678   1.176   0.735   2.918 -0.2273 -0.4183 -0.0672
 2489WAT     H2 7679   1.227   0.763   3.058  0.0769 -1.7907  0.1095
 2490WAT      O 7680   2.192   1.160   1.618  0.0239  0.0431  0.1079
 2490WAT     H1 7681   2.280   1.140   1.586  0.4807  1.2140  0.5621
 2490WAT     H2 7682   2.175   1.249   1.585 -0.5801  0.2101  0.8520
 2491WAT      O 7683   2.669   3.318   3.571  0.0063 -0.3528 -0.1040
 2491WAT     H1 7684   2.586   3.292   3.532  0.7396  0.2207 -2.1942
 2491WAT     H2 7685   2.736   3.276   3.517  1.0967 -0.4248  1.2438
 2492WAT      O 7686   3.596   3.383   0.948 -0.2341 -0.3335 -0.1306
 2492WAT     H1 7687   3.682   3.387   0.905 -0.7317  0.0303 -1.1220
 2492WAT     H2 7688   3.533   3.399   0.878 -1.0562  0.8041  0.8064
 2493WAT      O 7689   3.086   0.864   3.489  1.0390  0.0388 -0.1154
 2493WAT     H1 7690   3.031   0.873   3.411  1.5547 -0.4500 -0.5503
 2493WAT     H2 7691   3.139   0.786   3.471  0.5462 -0.5946  1.1056
 2494WAT      O 7692   3.490   1.390   1.272 -0.1457 -0.1410  0.1384
 2494WAT     H1 7693   3.521   1.397   1.362  2.1546 -0.4321 -0.5562
 2494WAT     H2 7694   3.565   1.356   1.224 -1.8376 -1.5996 -1.6205
 2495WAT      O 7695   3.083   0.323   4.094 -0.5045  0.1479  0.0096
 2495WAT     H1 7696   3.111   0.265   4.023 -2.6451 -0.8369 -0.1171
 2495WAT     H2 7697   3.164   0.362   4.127  0.7034 -0.5999 -1.9040
 2496WAT      O 7698   3.500   0.336   4.304  0.7335 -0.3524  0.3733
 2496WAT     H1 7699   3.584   0.328   4.259  1.1245  0.9904  0.8048
 2496WAT     H2 7700   3.473   0.247   4.323  1.3081 -0.8837 -1.1444
 2497WAT      O 7701   0.557   0.087   2.667 -0.4158  0.0535 -0.8477
 2497WAT     H1 7702   0.482   0.106   2.610 -1.1066  1.9473  0.6062
 2497WAT     H2 7703   0.549   0.149   2.739  1.1385 -1.4136  0.6854
 2498WAT      O 7704   2.648   5.566   1.305  0.4404  0.3055 -0.0526
 2498WAT     H1 7705   2.688   5.610   1.230  0.4243  0.0552 -0.2099
 2498WAT     H2 7706   2.658   5.473   1.286  1.9016  0.2135  1.0222
 2499WAT      O 7707   3.253   4.812   0.570 -0.1204  0.2333 -0.2261
 2499WAT     H1 7708   3.330   4.777   0.614  0.6383  2.3309  0.2202
 2499WAT     H2 7709   3.288   4.855   0.491 -0.7759  1.4082  0.1035
 2500WAT      O 7710   2.574   2.217   2.125 -0.0189 -0.3476 -0.4209
 2500WAT     H1 7711   2.595   2.280   2.056  1.4776 -0.4214 -0.0768
 2500WAT     H2 7712   2.629   2.244   2.199 -1.2048 -0.5757  0.5723
 2501WAT      O 7713   1.028   0.806   2.787 -0.4478  0.5326  0.0979
 2501WAT     H1 7714   0.976   0.729   2.810  0.3133 -0.5468 -1.6237
 2501WAT     H2 7715   0.979   0.847   2.716 -0.4395  1.2250  0.4794
 2502WAT      O 7716   4.319   5.406   3.282  0.1889  0.5532  0.3661
 2502WAT     H1 7717   4.326   5.385   3.375  0.3390 -1.1447 -0.0069
 2502WAT     H2 7718   4.379   5.346   3.238 -0.4408  0.7998 -0.9048
 2503WAT      O 7719   2.003   0.592   4.922  0.3382  0.0357  0.7101
 2503WAT     H1 7720   1.970   0.637   4.844 -0.7983 -1.4981  0.2634
 2503WAT     H2 7721   2.016   0.501   4.894  1.6076 -0.1741  1.8562
 2504WAT      O 7722   2.645   4.860   5.085 -0.3130  0.3454 -0.5396
 2504WAT     H1 7723   2.601   4.904   5.012  0.5668  0.0193 -1.2953
 2504WAT     H2 7724   2.718   4.813   5.043  0.5087  0.5561  0.6172
 2505WAT      O 7725   0.109   0.139   2.390 -0.0371  0.1442  0.0634
 2505WAT     H1 7726   0.030   0.137   2.445 -0.6287 -0.2588 -0.7820
 2505WAT     H2 7727   0.076   0.125   2.301  1.0286 -0.3420 -0.2608
 2506WAT      O 7728   4.231   0.201   3.179 -0.1070 -0.0073  0.3669
 2506WAT     H1 7729   4.169   0.225   3.111 -0.2241  0.1713  0.5368
 2506WAT     H2 7730   4.201   0.248   3.257  0.1501 -0.0407  0.4874
 2507WAT      O 7731   3.288   1.080   1.558  0.1940  1.1998  0.6266
 2507WAT     H1 7732   3.238   1.001   1.578  2.0202  0.0003  0.7608
 2507WAT     H2 7733   3.361   1.078   1.620  0.6145  2.6741  0.2227
 2508WAT      O 7734   1.244   3.315   5.131  0.0145 -0.0189 -0.1631
 2508WAT     H1 7735   1.321   3.330   5.185  0.7316 -0.7464 -0.9513
 2508WAT     H2 7736   1.256   3.227   5.095  1.1972  1.4751 -4.0030
 2509WAT      O 7737   0.112   0.563   2.751 -0.3797  0.1714 -0.0930
 2509WAT     H1 7738   0.131   0.600   2.837  1.3233 -3.0558  1.1170
 2509WAT     H2 7739   0.195   0.568   2.703 -0.4015 -0.9496 -0.2870
 2510WAT      O 7740   4.807   3.711   3.006 -0.3373 -0.1917  0.0816
 2510WAT     H1 7741   4.815   3.741   2.916  0.1821 -2.8394 -0.8521
 2510WAT     H2 7742   4.828   3.618   3.002  1.5632 -0.0401  3.2377
 2511WAT      O 7743   1.276   4.789   0.046  0.3177 -0.2970  0.3352
 2511WAT     H1 7744   1.205   4.774  -0.017  0.5882  0.2174 -0.0970
 2511WAT     H2 7745   1.293   4.883   0.041  0.2993 -0.2380  1.2334
 2512WAT      O 7746   2.349   0.931   3.000  0.4159 -0.0546 -0.4678
 2512WAT     H1 7747   2.339   1.023   2.976  1.1361  0.0495 -0.4086
 2512WAT     H2 7748   2.269   0.909   3.047  1.1630  1.2195  1.5660
 2513WAT      O 7749   2.637   2.321   4.575  0.0180 -0.1559  0.5540
 2513WAT     H1 7750   2.571   2.307   4.508  0.0556  1.1241  0.2281
 2513WAT     H2 7751   2.679   2.236   4.585  0.0386 -0.3703 -1.0745
 2514WAT      O 7752   1.408   4.623   2.380  0.6053 -0.5517  0.2709
 2514WAT     H1 7753   1.481   4.584   2.332  0.2240  0.0069 -0.7823
 2514WAT     H2 7754   1.361   4.549   2.418  0.6453 -1.0278 -0.5971
 2515WAT      O 7755   3.458   3.866   4.370 -0.0905  0.5129  0.2388
 2515WAT     H1 7756   3.476   3.886   4.462  0.8397  0.1449  0.1439
 2515WAT     H2 7757   3.436   3.950   4.331  1.1615  0.9549  0.4351
 2516WAT      O 7758   4.466   5.206   3.164 -0.1005  0.1149  0.1662
 2516WAT     H1 7759   4.528   5.146   3.206 -1.5446 -0.5218  1.4896
 2516WAT     H2 7760   4.505   5.226   3.079  0.7240 -2.2248 -0.0671
 2517WAT      O 7761   1.036   4.541   1.812  0.5534 -0.2733  0.3686
 2517WAT     H1 7762   1.079   4.623   1.838  0.7231 -0.5508  0.9670
 2517WAT     H2 7763   1.075   4.519   1.728  1.7939 -0.6672  1.0284
 2518WAT      O 7764   2.268   1.555   2.570  0.1588 -0.4799 -0.0672
 2518WAT     H1 7765   2.183   1.512   2.574 -0.0159 -0.2318 -0.8220
 2518WAT     H2 7766   2.256   1.625   2.505  0.8462 -0.2392  0.0567
 2519WAT      O 7767   1.008   4.674   4.646  0.4117 -0.1874  0.2354
 2519WAT     H1 7768   0.923   4.685   4.604 -1.1531 -1.3121  2.8189
 2519WAT     H2 7769   1.032   4.583   4.630 -0.3518 -0.7209  1.8776
 2520WAT      O 7770   1.920   0.498   1.567 -0.6965  0.3101 -0.3705
 2520WAT     H1 7771   2.000   0.508   1.619 -0.7853  1.3747 -0.4299
 2520WAT     H2 7772   1.911   0.403   1.556  0.0714  0.1362  0.3903
 2521WAT      O 7773   1.224   1.287   3.885  0.1562  0.4226  0.5152
 2521WAT     H1 7774   1.160   1.282   3.814  0.6079  0.8032  0.0730
 2521WAT     H2 7775   1.308   1.297   3.841  0.4082  1.0023  1.1146
 2522WAT      O 7776   1.991   0.376   2.739  0.0134 -0.4990 -0.5260
 2522WAT     H1 7777   2.046   0.387   2.817 -0.0929  1.4825 -0.6868
 2522WAT     H2 7778   2.052   0.346   2.671  0.4655 -0.4113 -0.1621
 2523WAT      O 7779   3.840   4.882   5.662 -0.2362 -0.3693  1.1036
 2523WAT     H1 7780   3.832   4.813   5.596 -0.9853 -0.7824  1.6170
 2523WAT     H2 7781   3.767   4.868   5.721  0.5662 -0.1637  2.1801
 2524WAT      O 7782   1.998   3.160   2.915 -0.3956 -0.7072  0.1504
 2524WAT     H1 7783   1.961   3.119   2.993  0.5997 -0.5320  0.7296
 2524WAT     H2 7784   1.979   3.098   2.844  0.8113 -2.0601  0.9542
 2525WAT      O 7785   0.998   3.494   3.368  0.1054  0.3726  0.1247
 2525WAT     H1 7786   0.917   3.546   3.362  0.7327  1.4265  0.5627
 2525WAT     H2 7787   0.969   3.404   3.356 -1.2504  0.6540  1.0493
 2526WAT      O 7788   4.727   4.065   2.925  0.2192  0.4013 -0.3281
 2526WAT     H1 7789   4.819   4.086   2.944  0.6405 -1.6641  0.2243
 2526WAT     H2 7790   4.732   3.984   2.874 -1.3346 -1.5332  2.3520
 2527WAT      O 7791   4.122   3.641   2.728 -0.2116  0.2434  0.5264
 2527WAT     H1 7792   4.209   3.680   2.731  0.1936 -0.6040  0.2379
 2527WAT     H2 7793   4.077   3.676   2.805  0.5670  0.2785  0.9773
 2528WAT      O 7794   2.105   0.417   2.069  0.2240 -0.1787 -0.9151
 2528WAT     H1 7795   2.159   0.474   2.124  0.8811 -0.5285 -1.1841
 2528WAT     H2 7796   2.020   0.417   2.112  0.7604 -0.5715  0.2060
 2529WAT      O 7797   2.914   2.305   1.764 -0.9891 -0.5902 -0.0033
 2529WAT     H1 7798   2.985   2.283   1.825 -0.8892 -1.1251 -0.3035
 2529WAT     H2 7799   2.848   2.348   1.818 -1.7802 -2.8029  0.8998
 2530WAT      O 7800   1.865   2.204   4.113 -0.5759 -0.0274  0.1736
 2530WAT     H1 7801   1.909   2.121   4.132  2.7650  1.7089  0.8810
 2530WAT     H2 7802   1.783   2.199   4.162  0.0086 -2.4793  1.0503
 2531WAT      O 7803   1.267   5.111   4.432 -0.0178  0.1266 -0.6884
 2531WAT     H1 7804   1.332   5.059   4.479 -0.0396  1.4869  0.9497
 2531WAT     H2 7805   1.183   5.077   4.462 -0.0558 -0.1670 -1.1165
 2532WAT      O 7806   3.462   2.488   1.441  0.7488 -0.1323  0.0148
 2532WAT     H1 7807   3.505   2.447   1.516 -0.8704  1.6971  2.0779
 2532WAT     H2 7808   3.489   2.579   1.445 -0.2195  0.2115 -0.9943
 2533WAT      O 7809   2.023   3.969   2.433 -0.2825 -0.8614  0.1182
 2533WAT     H1 7810   2.051   3.928   2.516  1.8929  1.5557  0.7122
 2533WAT     H2 7811   1.946   4.021   2.457  0.6855  0.2975  0.8199
 2534WAT      O 7812   3.939   1.687   4.122  0.0191  0.5324 -0.1602
 2534WAT     H1 7813   3.946   1.756   4.188  1.8483  0.3941 -0.1566
 2534WAT     H2 7814   3.941   1.605   4.172  2.4326  0.3966 -0.3769
 2535WAT      O 7815   1.747   2.345   2.651  0.6394 -0.1610 -0.2287
 2535WAT     H1 7816   1.767   2.255   2.628 -0.6141 -0.8758  1.2962
 2535WAT     H2 7817   1.767   2.352   2.744  0.7369  1.1373 -0.3286
 2536WAT      O 7818   1.572   4.919   1.574 -0.5525  0.1606 -0.2627
 2536WAT     H1 7819   1.628   4.994   1.595 -0.8944  0.4954 -0.5295
 2536WAT     H2 7820   1.604   4.849   1.631 -2.6093  1.5065  2.8541
 2537WAT      O 7821   1.396   0.527   4.583 -0.4433 -0.6184 -0.4747
 2537WAT     H1 7822   1.452   0.461   4.625  0.2371 -0.9109 -1.8048
 2537WAT     H2 7823   1.452   0.570   4.519 -1.4353 -0.1564 -1.0643
 2538WAT      O 7824   2.327   4.183   3.604 -0.4706 -0.0049  0.4905
 2538WAT     H1 7825   2.391   4.252   3.617 -0.1523 -0.1158 -0.4532
 2538WAT     H2 7826   2.242   4.228   3.608 -0.2336  0.9524 -2.7544
 2539WAT      O 7827   2.089   0.447   0.837 -0.1710 -0.1128 -0.0201
 2539WAT     H1 7828   2.010   0.485   0.875  0.0789 -0.6995  1.1314
 2539WAT     H2 7829   2.095   0.359   0.876  0.4666 -0.4824 -0.9146
 2540WAT      O 7830   1.855   0.644   0.155  0.5038  0.2886  0.5233
 2540WAT     H1 7831   1.913   0.718   0.171  2.3640 -0.6920 -1.0943
 2540WAT     H2 7832   1.885   0.577   0.216  1.2651 -0.2785 -0.4330
 2541WAT      O 7833   2.437   1.119   1.464  0.0892  0.4110  0.2091
 2541WAT     H1 7834   2.487   1.051   1.509 -2.0678 -0.7839  0.9379
 2541WAT     H2 7835   2.501   1.161   1.406  1.5765 -2.0651 -0.0957
 2542WAT      O 7836   3.209   1.975   1.765 -0.3544 -0.2764 -0.3082
 2542WAT     H1 7837   3.217   2.063   1.802  0.8314 -0.8847  0.9768
 2542WAT     H2 7838   3.151   1.986   1.689  0.6279  1.7929 -0.8264
 2543WAT      O 7839   1.739   3.771   3.162 -0.3382 -0.5351 -0.0110
 2543WAT     H1 7840   1.826   3.736   3.144  0.0336  1.0072 -1.5752
 2543WAT     H2 7841   1.684   3.737   3.092 -0.5955 -0.2070  0.0258
 2544WAT      O 7842   1.255   2.897   4.087  0.1435 -0.6415 -0.7127
 2544WAT     H1 7843   1.314   2.821   4.088  0.2698 -0.5435 -0.1627
 2544WAT     H2 7844   1.313   2.972   4.069  0.2093 -0.5322 -0.0690
 2545WAT      O 7845   2.243   4.807   4.384 -0.0905 -0.2930 -0.1635
 2545WAT     H1 7846   2.246   4.763   4.299 -1.4902 -2.1446  0.6739
 2545WAT     H2 7847   2.297   4.752   4.441  1.1384  1.1338  0.1081
 2546WAT      O 7848   0.407   2.242   3.118  0.3670 -0.2561  0.0000
 2546WAT     H1 7849   0.325   2.232   3.070  0.4415  0.5284 -0.3063
 2546WAT     H2 7850   0.394   2.321   3.171  1.3561  0.5751 -0.9621
 2547WAT      O 7851   4.432   3.002   2.228 -0.2114  0.1413 -0.6740
 2547WAT     H1 7852   4.494   2.941   2.268  0.3393  0.4553 -1.0304
 2547WAT     H2 7853   4.353   2.994   2.282  0.6842  0.9583  0.8304
 2548WAT      O 7854   2.329   1.841   2.705  0.4013  0.3551  0.3003
 2548WAT     H1 7855   2.410   1.790   2.710 -0.1167 -0.3687  2.1772
 2548WAT     H2 7856   2.268   1.785   2.659  0.5848  0.3451  0.0692
 2549WAT      O 7857   1.414   1.202   5.055  0.1593  0.1298 -0.4169
 2549WAT     H1 7858   1.425   1.291   5.089 -0.9879  0.8108 -1.6981
 2549WAT     H2 7859   1.416   1.146   5.133  0.8432  1.2755  0.4212
 2550WAT      O 7860   1.628   0.373   4.651 -0.5553 -0.4120  0.2936
 2550WAT     H1 7861   1.630   0.338   4.740  0.3261 -0.7289  0.1640
 2550WAT     H2 7862   1.671   0.458   4.657 -0.7186 -0.3223  0.2138
 2551WAT      O 7863   1.492   5.419   3.845  0.3629  0.8290 -0.0244
 2551WAT     H1 7864   1.584   5.396   3.848 -0.1762 -2.7217 -3.0320
 2551WAT     H2 7865   1.481   5.464   3.762 -0.5272  1.8647  0.6270
 2552WAT      O 7866   4.235   1.351   2.739 -0.2627  0.2992 -0.5009
 2552WAT     H1 7867   4.259   1.439   2.708 -0.0184  0.6406  0.5954
 2552WAT     H2 7868   4.247   1.295   2.663  0.8200  1.0120 -0.8897
 2553WAT      O 7869   1.563   0.188   4.296 -0.1714  0.8128  0.2264
 2553WAT     H1 7870   1.510   0.143   4.361 -0.1914  0.3115 -0.1302
 2553WAT     H2 7871   1.520   0.272   4.284 -0.6458  0.5755  0.2445
 2554WAT      O 7872   1.388   2.464   1.108  0.0482  0.0302 -0.1481
 2554WAT     H1 7873   1.467   2.510   1.136 -0.5073 -0.6752  2.8829
 2554WAT     H2 7874   1.402   2.373   1.133 -1.1756 -0.3719 -0.8069
 2555WAT      O 7875   2.364   2.413   1.100  0.3109 -0.0708 -0.6165
 2555WAT     H1 7876   2.383   2.462   1.021  0.2751  2.4417  0.8257
 2555WAT     H2 7877   2.433   2.438   1.161  0.8567 -2.6359 -0.0736
 2556WAT      O 7878   1.911   5.277   3.514  0.3439  0.3029 -0.4426
 2556WAT     H1 7879   1.932   5.186   3.494  1.7924  0.5204 -0.0058
 2556WAT     H2 7880   1.991   5.325   3.494  0.0136  1.2946  0.5382
 2557WAT      O 7881   4.302   4.045   3.121  0.2435  0.0152  0.1912
 2557WAT     H1 7882   4.381   4.063   3.172  0.3995  1.6231 -0.5602
 2557WAT     H2 7883   4.329   4.056   3.030 -0.9147  1.0264 -0.0600
 2558WAT      O 7884   4.326   0.448   4.356 -0.7987 -0.0891  0.4672
 2558WAT     H1 7885   4.324   0.352   4.356  1.2681 -0.1996 -0.9948
 2558WAT     H2 7886   4.242   0.474   4.319 -0.0928 -1.4988 -2.3760
 2559WAT      O 7887   1.278   4.248   4.369  0.0778  0.1456  0.6497
 2559WAT     H1 7888   1.326   4.173   4.404 -0.5557  0.4665  2.3106
 2559WAT     H2 7889   1.320   4.324   4.411 -0.3152  0.6063  0.2226
 2560WAT      O 7890   3.833   0.628   4.307 -0.2513 -0.1217  0.2279
 2560WAT     H1 7891   3.784   0.710   4.297  0.5572  0.1495 -2.0208
 2560WAT     H2 7892   3.847   0.620   4.401 -0.9710  1.9440  0.5617
 2561WAT      O 7893   3.617   0.347   2.905  0.3282  0.2369  0.1934
 2561WAT     H1 7894   3.620   0.275   2.968  1.5866 -0.2498 -0.3961
 2561WAT     H2 7895   3.645   0.307   2.822  0.0438  1.1851 -0.3706
 2562WAT      O 7896   2.311   1.330   4.114  0.2232  0.5302  0.0106
 2562WAT     H1 7897   2.236   1.354   4.060  1.0956  1.2217 -0.9062
 2562WAT     H2 7898   2.277   1.261   4.172 -0.8769  0.1866 -1.0091
 2563WAT      O 7899   4.259   0.186   1.956 -0.1934  0.5286  0.3708
 2563WAT     H1 7900   4.197   0.116   1.971  0.5295 -0.2688 -0.2222
 2563WAT     H2 7901   4.230   0.227   1.874  0.4111 -0.2618 -0.2552
 2564WAT      O 7902   1.044   4.659   2.611 -0.1706 -0.3220 -0.1147
 2564WAT     H1 7903   1.084   4.730   2.560 -0.6286  0.5255  0.6721
 2564WAT     H2 7904   0.958   4.648   2.573  1.4034 -3.6579 -3.2788
 2565WAT      O 7905   2.105   1.421   1.566 -0.2580  0.2705  0.7103
 2565WAT     H1 7906   2.149   1.479   1.629 -1.5209 -0.0015  1.8922
 2565WAT     H2 7907   2.020   1.462   1.552 -0.4484 -0.3275  0.1054
 2566WAT      O 7908   3.977   1.842   4.389  0.3897  0.1914 -0.5022
 2566WAT     H1 7909   4.008   1.908   4.327 -0.7836  1.4087  0.1688
 2566WAT     H2 7910   3.990   1.882   4.475  0.1282 -0.6596 -0.0618
 2567WAT      O 7911   0.586   5.531   3.001  0.0310  0.3542 -0.3586
 2567WAT     H1 7912   0.565   5.446   3.041 -0.7818  0.5793 -0.2860
 2567WAT     H2 7913   0.591   5.592   3.074  1.0449  0.2964 -0.3693
 2568WAT      O 7914   4.080   0.595   2.886  0.0073  0.2327 -0.4310
 2568WAT     H1 7915   4.028   0.531   2.838 -0.7191 -0.6225  1.4186
 2568WAT     H2 7916   4.171   0.570   2.869 -0.2575 -0.7377 -0.4687
 2569WAT      O 7917   3.136   1.863   1.132  0.1685  0.4879 -0.1124
 2569WAT     H1 7918   3.146   1.798   1.203  0.4242 -0.3565 -0.9023
 2569WAT     H2 7919   3.046   1.893   1.140 -0.9989 -2.2619 -1.6209
 2570WAT      O 7920   3.208   1.281   3.502 -0.0819 -0.3063  0.1201
 2570WAT     H1 7921   3.159   1.219   3.555  0.4750 -1.0938 -0.2579
 2570WAT     H2 7922   3.271   1.227   3.454 -1.1412  0.2549 -2.0155
 2571WAT      O 7923   4.432   4.304   4.618  0.1738 -0.4123  0.3048
 2571WAT     H1 7924   4.466   4.392   4.631  0.7103 -0.5417 -0.2001
 2571WAT     H2 7925   4.464   4.278   4.532  0.7404 -1.4397  0.8106
 2572WAT      O 7926   2.613   0.511   1.217 -0.3319  0.3866  0.7519
 2572WAT     H1 7927   2.658   0.515   1.302 -1.1166  0.4284  1.1819
 2572WAT     H2 7928   2.520   0.517   1.240 -0.6240 -0.9059 -0.0051
 2573WAT      O 7929   3.267   1.224   0.138  0.3055 -0.2522 -0.0896
 2573WAT     H1 7930   3.239   1.255   0.224 -0.5748 -1.6965  0.1726
 2573WAT     H2 7931   3.271   1.304   0.084 -2.7459  0.2963  0.3068
 2574WAT      O 7932   1.103   0.255   3.696 -0.0648 -0.6383  0.3662
 2574WAT     H1 7933   1.171   0.296   3.750  0.3032  0.1548 -0.6386
 2574WAT     H2 7934   1.152   0.211   3.626 -0.5525 -0.9075  0.1894
 2575WAT      O 7935   2.222   2.680   5.565  0.9664  0.3475 -0.7404
 2575WAT     H1 7936   2.248   2.732   5.489  0.1184  1.6632 -0.1668
 2575WAT     H2 7937   2.127   2.692   5.571  0.5935 -1.8836 -1.0051
 2576WAT      O 7938   2.770   0.755   3.400  0.5770  0.0398 -0.3356
 2576WAT     H1 7939   2.834   0.779   3.467  0.3911 -0.0979 -0.1090
 2576WAT     H2 7940   2.787   0.816   3.328  0.3473  0.6195  0.0917
 2577WAT      O 7941   2.115   4.131   2.021  0.2470 -0.9081 -0.6471
 2577WAT     H1 7942   2.038   4.074   2.022  1.5127 -2.6809 -0.9415
 2577WAT     H2 7943   2.157   4.116   2.106  0.0145  0.4886 -0.2491
 2578WAT      O 7944   1.902   0.787   1.790  0.7363  0.8050 -0.4759
 2578WAT     H1 7945   1.898   0.847   1.715 -0.7379  0.8624 -0.3983
 2578WAT     H2 7946   1.990   0.751   1.788  0.9265  1.2762 -1.8701
 2579WAT      O 7947   0.589   5.275   2.772  0.2779  0.8859  0.4892
 2579WAT     H1 7948   0.558   5.349   2.824  1.2286  1.4167  0.3232
 2579WAT     H2 7949   0.585   5.306   2.681  2.8245  1.5957  0.5567
 2580WAT      O 7950   3.222   4.876   1.220 -0.3707 -0.7353 -0.2297
 2580WAT     H1 7951   3.281   4.933   1.171 -1.4451 -0.7873 -1.6321
 2580WAT     H2 7952   3.243   4.788   1.190 -1.3859 -0.7246 -1.0102
 2581WAT      O 7953   2.887   1.177   3.901 -0.4133  0.0575  0.0140
 2581WAT     H1 7954   2.845   1.091   3.897 -0.1822 -0.0270 -1.1016
 2581WAT     H2 7955   2.824   1.233   3.947 -0.9448 -0.5011 -0.0248
 2582WAT      O 7956   4.016   3.821   2.954  0.2610  0.0861 -0.0295
 2582WAT     H1 7957   4.030   3.767   3.031  0.3107 -1.0290 -0.7984
 2582WAT     H2 7958   4.036   3.910   2.983  1.2365 -0.4410  0.9698
 2583WAT      O 7959   0.883   2.767   2.506  0.1403 -0.2462 -0.5737
 2583WAT     H1 7960   0.947   2.804   2.444  1.1775  0.1899  0.7098
 2583WAT     H2 7961   0.935   2.745   2.583 -1.3117  0.4874  0.6759
 2584WAT      O 7962   2.681   3.860   2.274 -0.1878  0.0587 -0.0962
 2584WAT     H1 7963   2.641   3.886   2.357 -0.4089  1.5684 -0.6384
 2584WAT     H2 7964   2.664   3.934   2.216  1.3337 -0.2939 -1.0346
 2585WAT      O 7965   1.788   5.337   3.795  0.0827  0.3129 -0.5365
 2585WAT     H1 7966   1.805   5.333   3.701  0.5252 -0.5090 -0.4372
 2585WAT     H2 7967   1.816   5.424   3.822 -1.0044  0.9242 -1.3402
 2586WAT      O 7968   3.761   5.056   3.649 -0.5938  0.5007 -0.1028
 2586WAT     H1 7969   3.736   5.076   3.559  0.3323  1.4239 -0.1839
 2586WAT     H2 7970   3.741   5.136   3.698 -0.1554  0.3727  0.2998
 2587WAT      O 7971   4.129   5.606   5.024  0.4598  0.2253  0.1225
 2587WAT     H1 7972   4.053   5.555   4.996 -1.1983  2.1918  0.7333
 2587WAT     H2 7973   4.155   5.655   4.945  0.4700  0.2935  0.1683
 2588WAT      O 7974   3.599   5.069   4.288 -0.3339 -0.4658 -0.0823
 2588WAT     H1 7975   3.663   4.998   4.296  0.3506  0.0307 -0.9512
 2588WAT     H2 7976   3.595   5.108   4.375 -0.4214 -1.3103  0.3041
 2589WAT      O 7977   1.406   3.002   4.573 -0.4635 -0.1991  0.1881
 2589WAT     H1 7978   1.498   3.017   4.596 -0.8556  2.4221  0.2956
 2589WAT     H2 7979   1.358   3.069   4.621 -2.4808 -1.5781  0.2007
 2590WAT      O 7980   3.022   4.770   2.978 -0.1171  0.5420  0.1075
 2590WAT     H1 7981   3.088   4.788   2.911 -0.3560 -0.8237 -0.5078
 2590WAT     H2 7982   3.073   4.749   3.057  0.1625  1.3336  0.1472
 2591WAT      O 7983   1.188   5.168   1.705  0.3454 -0.0491 -0.5990
 2591WAT     H1 7984   1.102   5.158   1.663  0.2393  0.6363 -0.5524
 2591WAT     H2 7985   1.169   5.215   1.786  0.5355 -1.4010  0.2654
 2592WAT      O 7986   0.767   4.763   1.919  0.2888 -0.2742 -0.2546
 2592WAT     H1 7987   0.775   4.744   1.826  0.3990  1.8235 -0.7248
 2592WAT     H2 7988   0.797   4.853   1.928  0.1741 -0.3870  1.8056
 2593WAT      O 7989   3.565   4.404   2.988 -0.0094  0.1012  0.0100
 2593WAT     H1 7990   3.621   4.433   3.060 -0.1642 -2.4313  1.2545
 2593WAT     H2 7991   3.617   4.340   2.940  0.3943  2.3072 -2.7671
 2594WAT      O 7992   4.231   4.387   3.384  0.2023  0.0023  0.2081
 2594WAT     H1 7993   4.237   4.403   3.290 -0.4636  1.0192  0.3277
 2594WAT     H2 7994   4.248   4.293   3.393  0.4934 -0.0664 -0.8997
 2595WAT      O 7995   0.278   1.839   2.602 -0.4157 -0.2438  0.0548
 2595WAT     H1 7996   0.323   1.876   2.678 -0.3855  0.2197 -0.1832
 2595WAT     H2 7997   0.185   1.836   2.628 -0.5808  1.0484 -0.3164
 2596WAT      O 7998   4.454   5.258   4.509 -0.3591 -0.3619 -0.4135
 2596WAT     H1 7999   4.498   5.235   4.591 -0.0467  0.7328 -0.2456
 2596WAT     H2 8000   4.525   5.274   4.447 -0.5657 -0.3581 -0.6496
 2597WAT      O 8001   2.887   4.903   3.533  0.3418  0.1238 -0.1598
 2597WAT     H1 8002   2.902   4.969   3.601 -0.6218 -0.0579  0.2506
 2597WAT     H2 8003   2.936   4.934   3.457  0.8442  0.7063  0.3935
 2598WAT      O 8004   4.678   2.182   4.424  0.4491  0.4212 -0.9179
 2598WAT     H1 8005   4.603   2.234   4.453  0.5553  0.5593 -0.8947
 2598WAT     H2 8006   4.638   2.104   4.385  0.3095 -0.0034  0.0429
 2599WAT      O 8007   3.257   0.695   1.279  0.6198 -0.3446 -0.3239
 2599WAT     H1 8008   3.204   0.764   1.318  0.7982 -0.9564  1.1032
 2599WAT     H2 8009   3.330   0.684   1.340  0.1915 -2.2817 -0.0661
 2600WAT      O 8010   3.024   0.244   1.876  0.4105  0.8474 -0.6714
 2600WAT     H1 8011   3.065   0.325   1.906 -1.6979  1.0749  1.9444
 2600WAT     H2 8012   3.090   0.177   1.890  0.0468  1.1072  3.9065
 2601WAT      O 8013   1.042   1.069   2.995 -0.2558  0.2228  0.2395
 2601WAT     H1 8014   0.991   1.001   2.950 -0.8808  1.0052 -0.2587
 2601WAT     H2 8015   1.001   1.076   3.082  0.7159 -1.0260  0.8316
 2602WAT      O 8016   3.476   2.127   3.938 -0.9731 -0.5041  0.6346
 2602WAT     H1 8017   3.438   2.161   4.019 -0.1970 -0.8197  1.1423
 2602WAT     H2 8018   3.499   2.036   3.958 -0.0719 -0.3622  0.3224
 2603WAT      O 8019   2.654   0.527   3.300 -0.4112  0.0849  0.0061
 2603WAT     H1 8020   2.664   0.613   3.340 -0.1130  0.1224 -0.1483
 2603WAT     H2 8021   2.743   0.494   3.290 -0.5708 -0.6809  1.0012
 2604WAT      O 8022   1.382   0.403   4.227 -0.1189 -0.2250 -0.1763
 2604WAT     H1 8023   1.373   0.466   4.156 -1.2252  1.4475  1.3451
 2604WAT     H2 8024   1.292   0.380   4.251  0.2314 -1.0161  0.4544
 2605WAT      O 8025   0.464   0.454   4.652 -0.2214  0.1659  0.4625
 2605WAT     H1 8026   0.399   0.430   4.586  0.0631 -1.5408  0.7519
 2605WAT     H2 8027   0.421   0.521   4.705 -0.5577  1.4046 -1.2487
 2606WAT      O 8028   2.485   5.339   1.854 -0.6087 -0.2203  0.1555
 2606WAT     H1 8029   2.446   5.426   1.868 -0.5427 -0.0823 -0.4791
 2606WAT     H2 8030   2.492   5.331   1.759 -0.4711 -0.8622  0.2137
 2607WAT      O 8031   1.305   0.768   1.580  0.0020  0.0295  0.2952
 2607WAT     H1 8032   1.338   0.727   1.660 -1.9111 -2.2001  0.0622
 2607WAT     H2 8033   1.225   0.812   1.607 -2.2291 -3.0652 -0.6775
 2608WAT      O 8034   4.488   4.857   4.097  0.3335 -0.3893  0.6982
 2608WAT     H1 8035   4.399   4.823   4.100  0.4779 -0.6831  1.8460
 2608WAT     H2 8036   4.481   4.939   4.048 -0.3920 -0.8896 -0.0608
 2609WAT      O 8037   3.066   2.642   4.613  0.5484 -0.7366  0.5705
 2609WAT     H1 8038   3.162   2.640   4.613  0.5373 -2.3043  1.0244
 2609WAT     H2 8039   3.042   2.651   4.705  0.2724 -1.6886  0.6051
 2610WAT      O 8040   2.211   4.413   0.388 -0.0666  0.9617 -0.1856
 2610WAT     H1 8041   2.217   4.320   0.408  0.2595  1.0739  0.2502
 2610WAT     H2 8042   2.157   4.417   0.309  0.0073  0.3976 -0.2687
 2611WAT      O 8043   2.299   3.807   2.176 -0.3384 -0.2655  0.6701
 2611WAT     H1 8044   2.295   3.898   2.204  0.4721  0.3723 -1.1488
 2611WAT     H2 8045   2.296   3.757   2.258  0.1462  1.4099  1.7690
 2612WAT      O 8046   3.441   2.673   2.357  0.0068 -0.2008 -0.0003
 2612WAT     H1 8047   3.465   2.714   2.440 -0.5779  0.2331 -0.0364
 2612WAT     H2 8048   3.498   2.715   2.292 -0.6584  0.6450 -0.0529
 2613WAT      O 8049   1.434   0.389   1.655  0.4536 -0.0213 -0.3323
 2613WAT     H1 8050   1.454   0.326   1.723  1.5093 -0.6610 -1.2083
 2613WAT     H2 8051   1.386   0.459   1.700  0.6704 -0.6729  0.9443
 2614WAT      O 8052   2.449   3.771   0.061  0.3446  0.2454 -0.2245
 2614WAT     H1 8053   2.489   3.811  -0.016 -0.6391  0.0098 -0.8849
 2614WAT     H2 8054   2.370   3.823   0.075  1.2164  1.1778  1.5033
 2615WAT      O 8055   1.725   1.642   0.816 -0.1389 -0.3429 -0.0846
 2615WAT     H1 8056   1.802   1.624   0.870  0.0457  0.1642 -0.1754
 2615WAT     H2 8057   1.734   1.584   0.741  1.3294  1.2682 -1.2244
 2616WAT      O 8058   0.966   0.586   2.105 -0.4737 -0.5002  0.1266
 2616WAT     H1 8059   0.950   0.538   2.186  0.2248 -1.2978 -0.1908
 2616WAT     H2 8060   1.062   0.591   2.098 -0.5232 -0.4206 -0.6375
 2617WAT      O 8061   1.722   1.161   0.998 -0.1811  0.3340  0.4675
 2617WAT     H1 8062   1.708   1.250   0.965 -3.6423  0.0412  0.7492
 2617WAT     H2 8063   1.756   1.173   1.087  3.8058  1.1674 -0.9457
 2618WAT      O 8064   3.983   2.185   3.441 -0.5811 -0.1093 -0.4723
 2618WAT     H1 8065   4.004   2.132   3.364 -1.1644 -0.7477 -0.1997
 2618WAT     H2 8066   3.887   2.181   3.447 -0.6185  0.8079 -0.3216
 2619WAT      O 8067   2.989   4.620   1.804 -0.4388 -0.2295 -0.1905
 2619WAT     H1 8068   2.904   4.660   1.787 -0.0653  0.4640 -0.4394
 2619WAT     H2 8069   3.016   4.655   1.889  0.0274  0.2906 -0.5498
 2620WAT      O 8070   4.266   3.350   2.240 -0.6835  0.0473 -0.6384
 2620WAT     H1 8071   4.207   3.302   2.298  0.1624  0.9266  1.0186
 2620WAT     H2 8072   4.243   3.442   2.251  0.2271  0.3135 -0.8173
 2621WAT      O 8073   1.160   5.273   3.675 -0.0151  0.2205  0.0776
 2621WAT     H1 8074   1.174   5.362   3.708 -1.0031  0.9626 -1.3787
 2621WAT     H2 8075   1.248   5.242   3.654  0.3256  0.9251  0.4271
 2622WAT      O 8076   3.335   0.044   2.760 -0.1191  0.5792 -0.1629
 2622WAT     H1 8077   3.410   0.014   2.708 -2.1193 -0.0803 -2.9498
 2622WAT     H2 8078   3.349   0.138   2.770  1.1696  0.4410 -0.4315
 2623WAT      O 8079   2.979   3.738   1.280  0.2294 -0.0456 -0.1791
 2623WAT     H1 8080   2.900   3.780   1.246 -0.6660 -1.5394 -0.0598
 2623WAT     H2 8081   2.973   3.647   1.249  3.1459  0.3469 -2.1987
 2624WAT      O 8082   3.609   0.572   1.645 -0.0949  0.0752  0.6349
 2624WAT     H1 8083   3.556   0.649   1.622 -0.8888 -0.5565  0.3120
 2624WAT     H2 8084   3.663   0.556   1.567  0.2236  0.4213  0.7798
 2625WAT      O 8085   2.701   1.898   2.515 -0.3708 -0.3799 -0.0354
 2625WAT     H1 8086   2.788   1.866   2.541 -0.6056  0.0144  1.2884
 2625WAT     H2 8087   2.660   1.823   2.471  0.7791 -0.4343 -1.0783
 2626WAT      O 8088   2.486   1.678   1.128 -0.1663  0.3883 -0.4792
 2626WAT     H1 8089   2.580   1.675   1.108  0.0042  0.4857  0.2828
 2626WAT     H2 8090   2.456   1.761   1.089  0.0432  0.3140 -0.8004
 2627WAT      O 8091   2.262   0.697   0.385 -0.1332  0.5590 -0.1128
 2627WAT     H1 8092   2.274   0.612   0.342 -1.2447  0.0083  0.6351
 2627WAT     H2 8093   2.257   0.676   0.478 -1.8080  1.2693 -0.0111
 2628WAT      O 8094   3.981   0.514   3.152 -0.4988  0.5717 -0.3105
 2628WAT     H1 8095   4.008   0.552   3.068 -0.4959 -0.0418 -0.5951
 2628WAT     H2 8096   4.060   0.519   3.207  0.4830 -1.8818 -1.3746
 2629WAT      O 8097   1.770   1.489   1.812  0.3274 -0.1691  0.5675
 2629WAT     H1 8098   1.720   1.449   1.741  1.4640 -0.1662 -0.2816
 2629WAT     H2 8099   1.859   1.494   1.777  1.2373 -1.4964  2.5519
 2630WAT      O 8100   2.425   1.178   5.707 -0.0807  0.0648  0.1292
 2630WAT     H1 8101   2.447   1.238   5.636  0.3330  2.0927  1.8701
 2630WAT     H2 8102   2.508   1.159   5.750 -0.4825 -0.0847  0.8669
 2631WAT      O 8103   2.116   4.199   5.352  0.5572  0.4071  0.3337
 2631WAT     H1 8104   2.098   4.195   5.258 -1.5697 -1.3907  0.7097
 2631WAT     H2 8105   2.115   4.292   5.373  0.0928  0.7940 -1.2538
 2632WAT      O 8106   1.028   2.683   3.000 -0.2591 -0.4098 -0.7976
 2632WAT     H1 8107   1.113   2.654   3.034 -0.7227 -0.3184  0.4847
 2632WAT     H2 8108   0.974   2.604   3.000 -1.2434  0.1773  1.8243
 2633WAT      O 8109   2.196   2.906   2.780  1.0453  0.0575 -0.2754
 2633WAT     H1 8110   2.225   2.852   2.854 -0.3712  0.3162  0.5006
 2633WAT     H2 8111   2.104   2.925   2.799  0.5383 -0.1684 -2.3003
 2634WAT      O 8112   2.561   2.238   5.225 -0.8534 -0.0442 -0.1047
 2634WAT     H1 8113   2.618   2.198   5.160 -1.5963 -0.8989 -0.2363
 2634WAT     H2 8114   2.482   2.262   5.177 -1.0613  0.1155  0.3060
 2635WAT      O 8115   0.536   3.314   4.063  0.2166  0.9740  0.1773
 2635WAT     H1 8116   0.447   3.278   4.058  1.0470 -1.0977 -1.1569
 2635WAT     H2 8117   0.553   3.347   3.975  0.0309  3.4446  0.9925
 2636WAT      O 8118   2.425   5.469   0.517  0.8580  0.3065  0.1256
 2636WAT     H1 8119   2.412   5.423   0.434 -3.1459 -0.1722  0.8147
 2636WAT     H2 8120   2.416   5.401   0.584  1.2897  1.1016  1.0210
 2637WAT      O 8121   3.210   4.203   1.088  0.0314 -0.5183  0.2913
 2637WAT     H1 8122   3.142   4.193   1.154  0.4453 -0.8961  0.6662
 2637WAT     H2 8123   3.288   4.228   1.137 -0.1224  1.1627 -0.2677
 2638WAT      O 8124   3.170   1.966   1.491 -0.1593  0.3145  0.3513
 2638WAT     H1 8125   3.212   1.887   1.458  0.4101  0.7922 -0.0763
 2638WAT     H2 8126   3.154   2.020   1.414  1.0695  1.3873  0.8088
 2639WAT      O 8127   3.166   0.471   0.942 -0.3427 -0.2822 -0.0390
 2639WAT     H1 8128   3.148   0.420   0.863 -0.8732  0.5532 -0.4644
 2639WAT     H2 8129   3.081   0.485   0.982 -0.3068  0.9174 -0.3388
 2640WAT      O 8130   0.480   5.384   4.720  0.1280  0.4729  0.4382
 2640WAT     H1 8131   0.540   5.424   4.783 -0.3499  1.4373  0.3066
 2640WAT     H2 8132   0.503   5.291   4.720 -1.5353 -0.1104  3.9634
 2641WAT      O 8133   3.363   4.519   3.935 -0.0461 -0.4642  0.9090
 2641WAT     H1 8134   3.314   4.529   4.017  1.3189 -0.2043  1.7259
 2641WAT     H2 8135   3.387   4.608   3.911 -1.7256 -0.3805 -0.6286
 2642WAT      O 8136   3.494   5.030   3.519  0.0465 -0.4393  0.1079
 2642WAT     H1 8137   3.513   5.077   3.438  0.8596 -1.2648 -0.1939
 2642WAT     H2 8138   3.469   5.098   3.581  0.2383  0.2844 -0.5948
 2643WAT      O 8139   3.240   5.578   0.901 -0.2086 -0.2454 -0.0240
 2643WAT     H1 8140   3.253   5.570   0.996  0.8683 -0.8495 -0.2019
 2643WAT     H2 8141   3.153   5.542   0.885 -0.5387  0.1702  0.7740
 2644WAT      O 8142   2.776   1.588   2.769 -0.4565 -0.0757  0.4233
 2644WAT     H1 8143   2.787   1.497   2.744 -1.7538 -0.3185  0.6503
 2644WAT     H2 8144   2.700   1.618   2.718 -1.7536  0.0574  2.3352
 2645WAT      O 8145   4.222   2.222   4.353  0.6039  0.6407 -0.2399
 2645WAT     H1 8146   4.266   2.296   4.310  0.8414 -0.5024 -2.0879
 2645WAT     H2 8147   4.279   2.200   4.426  1.1136  1.5636 -0.3333
 2646WAT      O 8148   2.403   4.299   4.736  0.2590  0.1609 -0.1146
 2646WAT     H1 8149   2.476   4.338   4.687 -0.7454  1.8383 -0.3513
 2646WAT     H2 8150   2.347   4.373   4.759 -0.2283 -0.7966  2.0670
 2647WAT      O 8151   1.958   2.224   1.273  0.2452  0.2156  0.0073
 2647WAT     H1 8152   2.053   2.210   1.270  0.3681  1.0646 -1.3447
 2647WAT     H2 8153   1.924   2.170   1.202 -0.1458  0.6832 -0.1720
 2648WAT      O 8154   1.977   2.792   3.975  0.6421 -0.6439  0.1328
 2648WAT     H1 8155   1.973   2.770   3.882  0.7903  2.0090 -0.5795
 2648WAT     H2 8156   2.002   2.884   3.977 -3.5330  0.7263  2.6210
 2649WAT      O 8157   2.644   0.970   1.700 -0.1248 -0.0696 -0.0428
 2649WAT     H1 8158   2.710   1.022   1.656  0.4488 -0.4745  0.3243
 2649WAT     H2 8159   2.651   0.994   1.793  0.1402 -0.7840  0.1301
 2650WAT      O 8160   0.811   3.993   1.011  0.0837  0.0524 -0.4410
 2650WAT     H1 8161   0.804   3.899   1.028 -0.6209  0.2471  0.4351
 2650WAT     H2 8162   0.885   4.001   0.951 -0.8187 -1.2030 -1.7699
 2651WAT      O 8163   2.396   3.316   2.957  0.2405  0.4068  0.5143
 2651WAT     H1 8164   2.480   3.299   2.914  0.7809 -2.1642  2.2995
 2651WAT     H2 8165   2.384   3.411   2.950  3.2211  0.8609  0.0290
 2652WAT      O 8166   4.837   0.583   2.670  0.8885  0.4303 -0.0302
 2652WAT     H1 8167   4.925   0.571   2.705 -0.0177 -2.2710  1.6456
 2652WAT     H2 8168   4.835   0.530   2.591  0.4572 -0.5537  0.6175
 2653WAT      O 8169   4.156   3.011   4.938 -0.3695 -0.3369  0.4156
 2653WAT     H1 8170   4.182   2.925   4.970 -1.5734 -1.1831 -0.7819
 2653WAT     H2 8171   4.234   3.045   4.893 -0.4887 -1.7367 -0.9290
 2654WAT      O 8172   1.808   4.307   5.387  0.2516  0.1251  0.0462
 2654WAT     H1 8173   1.794   4.245   5.458 -0.1361  1.1153  0.8445
 2654WAT     H2 8174   1.855   4.256   5.321 -1.0668 -1.3463  0.1796
 2655WAT      O 8175   2.027   0.325   5.617 -0.1343  0.0778  0.5742
 2655WAT     H1 8176   2.093   0.281   5.562 -1.0249 -0.7319  0.1147
 2655WAT     H2 8177   2.078   0.376   5.679  0.9148  1.3439 -1.2446
 2656WAT      O 8178   2.896   5.266   0.569 -0.3131  0.0816  0.1981
 2656WAT     H1 8179   2.928   5.244   0.482 -0.6005 -1.3158  0.4287
 2656WAT     H2 8180   2.805   5.237   0.569 -0.2751 -0.0648  1.0044
 2657WAT      O 8181   1.326   0.870   1.318  0.3089 -0.3558 -0.3601
 2657WAT     H1 8182   1.331   0.802   1.251 -2.0233 -0.9787  0.0225
 2657WAT     H2 8183   1.330   0.823   1.401  0.4812  0.1589 -0.0679
 2658WAT      O 8184   2.337   2.532   5.217 -0.0364  0.4327  0.1418
 2658WAT     H1 8185   2.396   2.547   5.143  0.0751  0.8401  0.3097
 2658WAT     H2 8186   2.267   2.478   5.181  0.1381  0.4346 -0.2048
 2659WAT      O 8187   2.075   1.128   1.110  0.1047  0.1756  0.6007
 2659WAT     H1 8188   2.138   1.078   1.058 -0.2088  0.4620 -0.0619
 2659WAT     H2 8189   2.046   1.067   1.178 -1.8246 -1.2711 -1.3921
 2660WAT      O 8190   1.922   2.674   0.399  0.2191 -0.0966  0.3083
 2660WAT     H1 8191   1.955   2.764   0.403  2.3489 -0.7923 -0.5472
 2660WAT     H2 8192   1.882   2.667   0.312  0.9881 -0.2769 -0.0321
 2661WAT      O 8193   1.878   2.464   0.128  0.7330 -0.1107  0.1207
 2661WAT     H1 8194   1.937   2.393   0.153  0.9768 -0.7038 -1.9695
 2661WAT     H2 8195   1.796   2.443   0.172  1.2583 -0.8097  0.7989
 2662WAT      O 8196   2.100   3.099   1.326  0.2632  0.5208 -0.0660
 2662WAT     H1 8197   2.012   3.081   1.294  0.5903 -0.2831 -0.5462
 2662WAT     H2 8198   2.113   3.192   1.310 -0.2681  0.5089 -0.5783
 2663WAT      O 8199   2.402   4.105   1.059  0.2352  0.3352  0.7768
 2663WAT     H1 8200   2.423   4.125   1.150 -1.0714 -0.1153  1.1947
 2663WAT     H2 8201   2.307   4.100   1.057  0.2773 -0.2914 -0.4842
 2664WAT      O 8202   3.678   0.176   2.437 -0.4742 -0.1261 -0.4203
 2664WAT     H1 8203   3.599   0.218   2.401 -1.1890 -1.1891 -0.1505
 2664WAT     H2 8204   3.720   0.135   2.361 -1.4658 -1.5445 -0.2538
 2665WAT      O 8205   1.649   1.065   1.855 -0.4899 -0.9551  0.0432
 2665WAT     H1 8206   1.721   1.088   1.914 -1.9858  0.6998  1.3213
 2665WAT     H2 8207   1.689   1.005   1.791  2.3435  0.9554 -0.1402
 2666WAT      O 8208   3.468   1.016   3.989 -0.4094 -0.0120  0.2756
 2666WAT     H1 8209   3.509   1.039   3.905  0.1274 -1.1794  0.2061
 2666WAT     H2 8210   3.408   0.945   3.967 -0.4816 -0.1241  0.8398
 2667WAT      O 8211   3.867   5.050   3.017 -0.5800 -0.5026 -0.3285
 2667WAT     H1 8212   3.921   5.025   3.092 -0.6232  1.7042  0.5093
 2667WAT     H2 8213   3.777   5.041   3.048 -0.6089 -0.0353 -0.2802
 2668WAT      O 8214   3.002   0.695   0.641 -0.0910  0.2422  0.0560
 2668WAT     H1 8215   2.943   0.657   0.706 -0.0966  0.8129  0.3861
 2668WAT     H2 8216   3.080   0.720   0.691  0.2141 -0.0032 -0.2849
 2669WAT      O 8217   1.463   0.851   4.927  0.2847  0.3506  0.0096
 2669WAT     H1 8218   1.411   0.870   4.849 -0.9194  0.4173  0.8141
 2669WAT     H2 8219   1.433   0.764   4.955  1.4436 -0.1263 -0.1686
 2670WAT      O 8220   3.115   2.031   0.387  0.1286  0.1817 -0.0042
 2670WAT     H1 8221   3.196   2.011   0.434 -0.3997 -1.4278  0.2421
 2670WAT     H2 8222   3.062   2.079   0.450  0.6559  0.7763  0.0056
 2671WAT      O 8223   4.258   4.706   2.538 -0.2290  0.2178 -0.6488
 2671WAT     H1 8224   4.295   4.698   2.451 -0.3517  1.9420 -0.9024
 2671WAT     H2 8225   4.164   4.712   2.524 -0.3606 -0.7453 -0.2785
 2672WAT      O 8226   3.129   4.421   1.657  0.1707  0.5699  0.0713
 2672WAT     H1 8227   3.085   4.503   1.680 -1.9636  0.2148 -2.3628
 2672WAT     H2 8228   3.160   4.433   1.568  0.2051 -1.1192 -0.1861
 2673WAT      O 8229   2.905   0.538   2.786 -0.2067  0.4364 -0.0494
 2673WAT     H1 8230   2.844   0.609   2.802  1.0135  2.0352 -1.9434
 2673WAT     H2 8231   2.991   0.580   2.785  0.7480 -1.3733  0.4724
 2674WAT      O 8232   4.946   4.873   3.981 -0.6498  0.2964  0.2280
 2674WAT     H1 8233   4.989   4.799   3.938  1.1754 -0.4909  3.1178
 2674WAT     H2 8234   4.990   4.881   4.065 -1.7224  3.8571  0.6299
 2675WAT      O 8235   1.034   5.134   2.996 -0.0361  0.8528 -0.7538
 2675WAT     H1 8236   0.951   5.118   3.040  0.9633 -0.2695  0.8369
 2675WAT     H2 8237   1.095   5.154   3.067  1.8151 -1.6934 -1.4719
 2676WAT      O 8238   3.594   5.497   0.408  0.4504  0.4153  0.3904
 2676WAT     H1 8239   3.646   5.443   0.468 -0.6398 -0.7968  0.2898
 2676WAT     H2 8240   3.558   5.566   0.463  0.7773  0.2603  0.8027
 2677WAT      O 8241   1.255   2.892   1.276 -0.3905 -0.5103  0.2343
 2677WAT     H1 8242   1.314   2.933   1.213  0.5485 -0.5143  1.0855
 2677WAT     H2 8243   1.194   2.962   1.301  0.4780  0.0507  0.8103
 2678WAT      O 8244   1.557   3.915   3.640  0.0223 -0.4828 -0.7793
 2678WAT     H1 8245   1.591   3.969   3.569  1.1694 -0.6612 -0.3819
 2678WAT     H2 8246   1.516   3.977   3.701  0.7846 -0.1253 -0.6294
 2679WAT      O 8247   2.359   1.435   4.488 -0.1489  0.4852  0.3875
 2679WAT     H1 8248   2.414   1.358   4.478  0.6014  0.7626  2.1181
 2679WAT     H2 8249   2.359   1.475   4.401  1.3845 -0.1869  0.0414
 2680WAT      O 8250   2.985   0.116   0.103 -0.4655  0.2501  0.1528
 2680WAT     H1 8251   2.959   0.026   0.083  0.2479 -0.1442  0.9678
 2680WAT     H2 8252   2.903   0.161   0.121 -0.6975 -0.7329  1.7102
 2681WAT      O 8253   3.210   2.351   0.177  0.1245  0.5477  0.3301
 2681WAT     H1 8254   3.179   2.367   0.088 -0.9457  2.7278  1.0255
 2681WAT     H2 8255   3.218   2.256   0.183 -1.8274  0.2055 -1.4219
 2682WAT      O 8256   2.611   1.193   1.252  0.1262 -0.5071  0.4183
 2682WAT     H1 8257   2.653   1.279   1.258  0.0068 -0.4556  0.5113
 2682WAT     H2 8258   2.565   1.194   1.169  0.3273 -0.5710  0.3063
 2683WAT      O 8259   3.205   2.339   2.477 -0.8128 -0.2516 -0.3593
 2683WAT     H1 8260   3.297   2.329   2.454 -0.0413  0.8809  1.8657
 2683WAT     H2 8261   3.207   2.363   2.570 -3.3257  0.4104 -0.4163
 2684WAT      O 8262   4.310   3.303   3.823  0.1828  0.2316 -0.5570
 2684WAT     H1 8263   4.245   3.268   3.885  1.4618 -1.9915 -0.3346
 2684WAT     H2 8264   4.272   3.285   3.737  0.7234 -1.7389 -0.4454
 2685WAT      O 8265   1.472   5.087   2.346  0.3917 -0.4638  0.0013
 2685WAT     H1 8266   1.453   5.082   2.253 -0.9054 -0.9810  0.2721
 2685WAT     H2 8267   1.426   5.012   2.384  0.9775 -0.3146  1.0475
 2686WAT      O 8268   4.111   0.691   4.616 -0.3433  0.2662  0.4783
 2686WAT     H1 8269   4.028   0.687   4.664 -0.6944 -3.4604 -0.0843
 2686WAT     H2 8270   4.093   0.751   4.543 -1.3694  2.2020  2.2352
 2687WAT      O 8271   3.097   3.077   0.518 -0.0506  0.5303 -0.3733
 2687WAT     H1 8272   3.087   3.022   0.440  1.6163 -1.0170  0.4308
 2687WAT     H2 8273   3.066   3.023   0.590  0.5713  1.0716  0.3167
 2688WAT      O 8274   1.229   4.128   0.264 -0.1820  0.4731 -0.7422
 2688WAT     H1 8275   1.324   4.119   0.253  0.3695  0.1491  3.0381
 2688WAT     H2 8276   1.218   4.210   0.311 -1.4507 -0.7869  1.2846
 2689WAT      O 8277   4.346   0.559   2.865  0.2480 -0.2277  0.2266
 2689WAT     H1 8278   4.412   0.589   2.927 -1.5078 -0.7441  2.4971
 2689WAT     H2 8279   4.358   0.464   2.862  0.9424 -0.1151 -1.0271
 2690WAT      O 8280   3.005   0.401   1.584 -0.0700 -0.3382 -0.0475
 2690WAT     H1 8281   3.100   0.388   1.590 -0.1656 -0.6179  1.1715
 2690WAT     H2 8282   2.988   0.478   1.640 -0.7177 -1.1559  0.9248
 2691WAT      O 8283   2.908   0.659   1.356  0.0571 -0.6607 -0.4582
 2691WAT     H1 8284   2.964   0.662   1.434  0.8694 -0.6373 -1.0214
 2691WAT     H2 8285   2.831   0.710   1.380 -0.6950 -2.3976  1.0615
 2692WAT      O 8286   1.897   2.337   1.855 -0.2758  0.1414 -0.2059
 2692WAT     H1 8287   1.926   2.366   1.768  1.0272  1.8133  0.7227
 2692WAT     H2 8288   1.916   2.243   1.856  0.7669  0.3098 -1.3255
 2693WAT      O 8289   2.175   5.441   4.021  0.2735  0.0345 -0.4067
 2693WAT     H1 8290   2.095   5.433   4.072 -0.5706  0.1584 -1.6523
 2693WAT     H2 8291   2.201   5.351   4.000  2.3031 -0.2274  2.6280
 2694WAT      O 8292   2.356   5.059   1.615 -0.0618 -0.0679  0.5019
 2694WAT     H1 8293   2.417   5.016   1.675 -0.1421 -1.8869 -0.6180
 2694WAT     H2 8294   2.273   5.013   1.629 -0.0397 -0.6545 -1.0784
 2695WAT      O 8295   1.465   4.358   3.178 -0.3657 -0.4262 -0.3236
 2695WAT     H1 8296   1.373   4.363   3.154 -1.5285  3.4327  3.6380
 2695WAT     H2 8297   1.469   4.285   3.241 -1.1651  0.3339  0.6531
 2696WAT      O 8298   2.312   1.909   0.992 -0.1102  0.3813 -0.2059
 2696WAT     H1 8299   2.253   1.979   0.964  1.9564  1.0899 -3.2674
 2696WAT     H2 8300   2.292   1.836   0.934  0.3135 -0.2556  0.4327
 2697WAT      O 8301   1.276   0.141   1.988 -0.6999 -0.2059 -0.2971
 2697WAT     H1 8302   1.221   0.080   1.939  0.1205 -0.9022 -0.3584
 2697WAT     H2 8303   1.363   0.132   1.950 -0.3843  0.3860  0.2572
 2698WAT      O 8304   1.615   1.630   0.160 -0.0260 -0.5551 -0.0427
 2698WAT     H1 8305   1.605   1.571   0.085 -0.9096 -0.3523 -0.0939
 2698WAT     H2 8306   1.556   1.593   0.227  0.1389 -0.2692  0.2640
 2699WAT      O 8307   1.964   1.887   1.740 -0.5237 -0.6135 -0.0702
 2699WAT     H1 8308   1.920   1.968   1.715 -1.2186 -0.6175  1.0702
 2699WAT     H2 8309   1.905   1.847   1.804  0.4576 -1.3543  0.3865
 2700WAT      O 8310   3.247   2.774   5.618  0.8120  0.0428  0.3635
 2700WAT     H1 8311   3.203   2.756   5.701  0.8269  0.1684  0.3999
 2700WAT     H2 8312   3.208   2.857   5.589 -1.7977 -1.7016 -1.5068
 2701WAT      O 8313   1.550   5.466   1.929 -0.4517 -0.4364  0.4019
 2701WAT     H1 8314   1.600   5.386   1.946  1.0723  0.3551 -0.1441
 2701WAT     H2 8315   1.611   5.537   1.950 -0.6251  0.5866 -2.2202
 2702WAT      O 8316   2.374   5.278   0.689 -0.1272 -0.3278  0.1275
 2702WAT     H1 8317   2.285   5.307   0.708  0.2550 -0.5678  2.4994
 2702WAT     H2 8318   2.372   5.183   0.701  0.5566 -0.2742  0.7282
 2703WAT      O 8319   1.704   5.209   2.392 -0.2368  0.2094  0.2969
 2703WAT     H1 8320   1.622   5.165   2.371 -1.2187  0.9173  2.3453
 2703WAT     H2 8321   1.768   5.139   2.401 -1.2676 -0.6159  1.3955
 2704WAT      O 8322   1.310   1.132   1.452 -0.1436  0.0598  0.4024
 2704WAT     H1 8323   1.231   1.180   1.428 -0.5305 -0.8899 -0.2643
 2704WAT     H2 8324   1.324   1.071   1.380  0.0405 -1.1954  1.4755
 2705WAT      O 8325   3.027   0.738   3.157 -0.4410 -0.1542  0.2346
 2705WAT     H1 8326   3.071   0.798   3.097  3.1683 -3.2203 -0.5642
 2705WAT     H2 8327   3.094   0.717   3.222 -2.1078 -2.0156  1.4465
 2706WAT      O 8328   2.030   2.723   5.093 -0.4548  0.2108 -0.7742
 2706WAT     H1 8329   1.947   2.679   5.109  0.6518 -1.6830  0.1359
 2706WAT     H2 8330   2.083   2.658   5.047  1.5591  0.2099  1.3835
 2707WAT      O 8331   1.511   3.821   5.223  0.2062  0.3087  0.1880
 2707WAT     H1 8332   1.537   3.914   5.220 -0.4977  0.5484  1.1523
 2707WAT     H2 8333   1.419   3.823   5.250  0.1229 -0.6732 -0.0008
 2708WAT      O 8334   3.486   1.063   1.772  0.2783 -0.5576 -0.3732
 2708WAT     H1 8335   3.573   1.102   1.778  1.0553 -2.1373 -0.7162
 2708WAT     H2 8336   3.475   1.017   1.856  0.0251 -0.8308 -0.5551
 2709WAT      O 8337   1.341   1.673   1.819 -0.1153  0.1576 -0.0242
 2709WAT     H1 8338   1.427   1.653   1.856 -0.5954 -1.4716  0.2913
 2709WAT     H2 8339   1.357   1.680   1.724  0.3798  0.0074  0.0461
 2710WAT      O 8340   1.888   4.320   4.398 -0.0749  0.7108 -0.5645
 2710WAT     H1 8341   1.937   4.398   4.375  1.0085  0.3933  0.5633
 2710WAT     H2 8342   1.921   4.252   4.340 -2.0407  1.3493 -2.5654
 2711WAT      O 8343   1.814   0.332   5.444 -0.0663 -0.2302  0.0872
 2711WAT     H1 8344   1.896   0.316   5.490  0.1085  0.0302 -0.1309
 2711WAT     H2 8345   1.835   0.323   5.352 -0.4129 -0.7223  0.0555
 2712WAT      O 8346   4.052   5.043   3.838 -0.6137  0.6147 -0.5387
 2712WAT     H1 8347   3.959   5.047   3.860 -0.3099 -2.8802  2.3830
 2712WAT     H2 8348   4.085   4.967   3.887  3.7261  1.4316 -1.7458
 2713WAT      O 8349   3.147   4.689   1.438 -0.3987 -0.1864 -0.8016
 2713WAT     H1 8350   3.053   4.697   1.421 -0.3965  1.2807 -0.3141
 2713WAT     H2 8351   3.188   4.740   1.367 -0.1821  2.1252  0.8542
 2714WAT      O 8352   4.015   1.559   3.201 -0.0638 -0.3348 -0.1464
 2714WAT     H1 8353   4.085   1.529   3.143 -0.2045  1.4319 -1.2935
 2714WAT     H2 8354   4.059   1.577   3.284  0.4758 -1.0747 -0.2569
 2715WAT      O 8355   2.544   1.952   4.929  0.1617 -0.4735 -0.0406
 2715WAT     H1 8356   2.458   1.993   4.914  0.3119  0.4613  1.4324
 2715WAT     H2 8357   2.561   1.967   5.022  1.1809 -2.1179  0.0626
 2716WAT      O 8358   2.726   4.917   5.849 -0.0198  0.4289  0.3848
 2716WAT     H1 8359   2.744   4.844   5.791  0.9456  0.4205  0.6900
 2716WAT     H2 8360   2.709   4.991   5.789  0.7454  0.3685  0.0827
 2717WAT      O 8361   2.335   4.039   0.135 -0.1445 -0.5999  0.2251
 2717WAT     H1 8362   2.345   4.110   0.072 -1.0657  0.8569  1.6425
 2717WAT     H2 8363   2.423   4.025   0.171 -0.2381  1.1249  1.2254
 2718WAT      O 8364   2.300   2.914   1.228  0.4187 -0.0001  0.8610
 2718WAT     H1 8365   2.268   2.899   1.139  2.0253 -2.5877  0.5995
 2718WAT     H2 8366   2.241   2.979   1.264 -0.3698  1.0637 -2.0409
 2719WAT      O 8367   3.116   4.835   5.481  0.0611  0.0356 -0.3077
 2719WAT     H1 8368   3.146   4.851   5.391  1.2146  0.0143  0.0594
 2719WAT     H2 8369   3.195   4.843   5.534 -0.3321 -1.3994  0.5408
 2720WAT      O 8370   2.590   0.200   0.845  0.0294  0.1233  0.0047
 2720WAT     H1 8371   2.499   0.228   0.853 -0.4352 -1.1411 -0.6012
 2720WAT     H2 8372   2.639   0.260   0.901 -1.0363  1.4794 -0.4761
 2721WAT      O 8373   1.554   0.331   0.781  0.3137 -0.2718 -0.0501
 2721WAT     H1 8374   1.474   0.352   0.830  1.0753 -0.3588  1.2954
 2721WAT     H2 8375   1.562   0.401   0.716 -0.4022  0.2065  0.3618
 2722WAT      O 8376   2.061   1.893   0.237  0.0611  0.6182 -0.5312
 2722WAT     H1 8377   1.970   1.881   0.209  0.2438  0.8510 -1.2441
 2722WAT     H2 8378   2.075   1.825   0.303 -0.3241 -0.0814 -1.1522
 2723WAT      O 8379   2.533   2.377   2.998 -0.2407 -0.0105 -0.4633
 2723WAT     H1 8380   2.463   2.439   2.979  1.1195  0.8361 -3.2136
 2723WAT     H2 8381   2.609   2.432   3.017  0.2542 -0.8931  0.1796
 2724WAT      O 8382   1.458   2.793   1.486 -0.0646 -0.2456 -0.3251
 2724WAT     H1 8383   1.479   2.707   1.449  1.0721  0.1742 -0.6749
 2724WAT     H2 8384   1.378   2.819   1.440 -0.5866 -1.2221 -0.0166
 2725WAT      O 8385   2.421   1.444   5.220  0.1708 -0.1473 -0.2503
 2725WAT     H1 8386   2.365   1.516   5.250  1.7667 -0.4287  4.0243
 2725WAT     H2 8387   2.495   1.487   5.178 -0.0125  0.5570  0.1290
 2726WAT      O 8388   1.865   4.687   2.830 -0.1789 -0.0488  0.7154
 2726WAT     H1 8389   1.826   4.647   2.752 -1.1717  0.0914  1.1279
 2726WAT     H2 8390   1.866   4.781   2.810 -2.4132  0.2522  1.6610
 2727WAT      O 8391   3.790   0.777   4.029  0.4746 -0.2867  0.2766
 2727WAT     H1 8392   3.844   0.768   3.950 -1.6793  0.7232 -1.4312
 2727WAT     H2 8393   3.764   0.687   4.051  2.4928 -0.7549  0.9458
 2728WAT      O 8394   3.592   0.861   3.624 -0.1000 -0.2847  0.0265
 2728WAT     H1 8395   3.554   0.922   3.687  0.6625 -1.0672  1.2776
 2728WAT     H2 8396   3.587   0.776   3.667 -1.0764 -1.1255 -1.6646
 2729WAT      O 8397   1.873   0.129   4.922  0.0783  0.3792  0.5105
 2729WAT     H1 8398   1.821   0.077   4.984  0.8362 -2.2414 -0.8817
 2729WAT     H2 8399   1.855   0.089   4.837  2.6877  0.7536 -0.2994
 2730WAT      O 8400   2.346   1.270   2.687 -0.2773  0.0861  0.5559
 2730WAT     H1 8401   2.344   1.231   2.775 -2.3756  1.0572  0.9949
 2730WAT     H2 8402   2.322   1.361   2.701  0.6251  0.5869 -0.9141
 2731WAT      O 8403   4.724   1.026   2.397  0.1182 -0.3715  0.1850
 2731WAT     H1 8404   4.655   0.960   2.394 -4.3007  3.4965  2.6730
 2731WAT     H2 8405   4.748   1.032   2.490 -0.2915  1.9299  0.2106
 2732WAT      O 8406   1.643   0.313   3.171 -0.2039  0.1493  0.3536
 2732WAT     H1 8407   1.682   0.252   3.109 -0.4397  0.4018 -0.0511
 2732WAT     H2 8408   1.685   0.293   3.254  0.5198  0.1750  0.0044
 2733WAT      O 8409   1.856   2.477   0.721  0.4635 -0.2964 -0.4217
 2733WAT     H1 8410   1.885   2.555   0.675  0.9008 -0.6499 -0.7578
 2733WAT     H2 8411   1.772   2.501   0.760  0.5088  0.2779 -0.6742
 2734WAT      O 8412   3.714   0.545   2.368 -0.2330 -0.5118 -0.0042
 2734WAT     H1 8413   3.721   0.506   2.281 -0.8787  0.2667 -0.4123
 2734WAT     H2 8414   3.804   0.546   2.400  0.0957 -0.2975 -0.8904
 2735WAT      O 8415   1.798   2.317   4.519  0.2650 -0.1439 -0.3545
 2735WAT     H1 8416   1.705   2.294   4.527  0.3788 -0.6367 -0.4237
 2735WAT     H2 8417   1.806   2.399   4.567  0.1072 -0.9414  1.0888
 2736WAT      O 8418   0.871   5.222   5.210 -0.0355  0.4623 -0.7097
 2736WAT     H1 8419   0.861   5.297   5.268 -0.6227 -0.5617  0.5651
 2736WAT     H2 8420   0.954   5.238   5.165  0.2695  1.4519  0.1673
 2737WAT      O 8421   3.633   0.759   2.532 -0.7049 -1.0140  0.2724
 2737WAT     H1 8422   3.693   0.729   2.600 -0.6431  0.5436  0.9399
 2737WAT     H2 8423   3.640   0.693   2.463  0.7956 -1.5287  0.8844
 2738WAT      O 8424   0.919   5.013   2.545  0.1535  0.7711 -0.5463
 2738WAT     H1 8425   0.953   4.960   2.473  0.0911  1.6815 -1.2653
 2738WAT     H2 8426   0.993   5.067   2.573 -0.4550  2.1849 -1.5838
 2739WAT      O 8427   1.243   5.549   1.596 -0.6428  0.0882  0.0306
 2739WAT     H1 8428   1.268   5.460   1.619 -2.1188 -0.2361  0.4844
 2739WAT     H2 8429   1.313   5.604   1.631  0.0042 -0.8490  0.2200
 2740WAT      O 8430   2.897   0.835   2.211  0.4052  0.1568 -0.1943
 2740WAT     H1 8431   2.801   0.841   2.218  0.3288 -0.3218 -0.7047
 2740WAT     H2 8432   2.926   0.821   2.301 -0.0591 -0.2649 -0.1024
 2741WAT      O 8433   3.418   4.141   4.317  1.0604  0.1864 -0.0577
 2741WAT     H1 8434   3.466   4.212   4.276  0.8246 -0.4725 -1.5189
 2741WAT     H2 8435   3.327   4.154   4.289  1.0253 -0.7157 -0.4079
 2742WAT      O 8436   1.436   5.146   0.401  0.3619 -0.8161  0.3371
 2742WAT     H1 8437   1.393   5.179   0.480  1.0036 -1.6323  1.0356
 2742WAT     H2 8438   1.527   5.174   0.410  0.5031 -1.1691  0.0302
 2743WAT      O 8439   1.581   5.019   3.150 -0.1990 -0.5321 -0.1567
 2743WAT     H1 8440   1.647   4.951   3.136 -0.3182 -0.9724  1.2540
 2743WAT     H2 8441   1.588   5.076   3.074  0.8513 -1.3566 -0.6952
 2744WAT      O 8442   2.157   3.318   2.315 -0.3256  0.1485  0.5769
 2744WAT     H1 8443   2.152   3.307   2.410 -0.2722  1.2313  0.7151
 2744WAT     H2 8444   2.242   3.280   2.291  0.6924  1.8530  1.2848
 2745WAT      O 8445   2.171   2.032   2.349  0.0000  0.2136  0.2150
 2745WAT     H1 8446   2.129   2.116   2.329 -1.2480 -0.4611 -0.1423
 2745WAT     H2 8447   2.263   2.045   2.328 -0.3636  1.1679 -0.8891
 2746WAT      O 8448   2.389   0.301   2.379 -0.1805 -0.2078  0.1191
 2746WAT     H1 8449   2.412   0.384   2.421 -1.2237 -0.3915  1.0988
 2746WAT     H2 8450   2.473   0.266   2.349  0.3778  0.7930  0.4575
 2747WAT      O 8451   2.288   2.213   2.981  0.0739 -0.4876 -0.7134
 2747WAT     H1 8452   2.277   2.259   2.897  1.0380  1.4255  0.1552
 2747WAT     H2 8453   2.363   2.255   3.022  0.0812 -1.8937  0.8036
 2748WAT      O 8454   2.770   0.536   5.235 -0.3013  0.2841  0.6120
 2748WAT     H1 8455   2.742   0.593   5.164  1.1861 -0.2254 -0.4449
 2748WAT     H2 8456   2.693   0.527   5.291 -1.7798  0.0219 -1.3699
 2749WAT      O 8457   1.807   1.697   1.193  0.3098 -0.3322 -0.3174
 2749WAT     H1 8458   1.876   1.696   1.127  1.3845  0.4830  0.7619
 2749WAT     H2 8459   1.807   1.786   1.227  0.2212 -0.8934  1.2376
 2750WAT      O 8460   1.783   4.699   0.326  0.1377  0.0369 -0.2770
 2750WAT     H1 8461   1.746   4.738   0.246  0.5485  0.5050 -0.2451
 2750WAT     H2 8462   1.713   4.706   0.390 -0.2138 -0.3876 -0.6059
 2751WAT      O 8463   3.494   1.695   2.503  0.1367 -0.6607  0.1259
 2751WAT     H1 8464   3.454   1.734   2.581 -3.3927 -1.1728 -1.2616
 2751WAT     H2 8465   3.458   1.744   2.430  0.9266 -2.1683 -1.3503
 2752WAT      O 8466   1.454   2.237   1.450 -0.7145  0.2058 -0.2959
 2752WAT     H1 8467   1.390   2.167   1.438 -0.8331 -0.2001  2.1229
 2752WAT     H2 8468   1.534   2.204   1.408 -0.7703 -1.4176  0.8004
 2753WAT      O 8469   3.126   1.265   4.277 -0.2269 -0.2492 -0.5515
 2753WAT     H1 8470   3.209   1.307   4.299 -0.5434  0.1354 -0.0592
 2753WAT     H2 8471   3.125   1.262   4.182 -0.5591  1.6101 -0.6341
 2754WAT      O 8472   3.891   2.346   3.148  0.0019  0.1781 -0.2550
 2754WAT     H1 8473   3.863   2.297   3.070  0.6682  0.8649 -0.9342
 2754WAT     H2 8474   3.982   2.318   3.162  0.6097  1.6728 -1.0339
 2755WAT      O 8475   1.704   5.493   5.694 -0.4151  1.5636  0.7490
 2755WAT     H1 8476   1.712   5.400   5.715 -1.3556  1.3536  0.2759
 2755WAT     H2 8477   1.769   5.508   5.625 -0.2584  1.2547  0.8307
 2756WAT      O 8478   3.022   2.113   5.501 -0.2143 -0.0909  0.5377
 2756WAT     H1 8479   2.972   2.191   5.476 -0.7283 -0.2140  1.1463
 2756WAT     H2 8480   2.965   2.067   5.562 -1.0764 -2.3489 -1.8172
 2757WAT      O 8481   2.017   0.880   0.471  0.2477  0.5035  0.1301
 2757WAT     H1 8482   2.044   0.875   0.379 -2.9743 -0.5079 -0.9274
 2757WAT     H2 8483   2.016   0.973   0.491 -1.3994  0.9542 -1.7609
 2758WAT      O 8484   3.436   0.359   1.049 -0.0904 -0.5016 -0.5470
 2758WAT     H1 8485   3.372   0.425   1.023  0.8803  0.4573 -0.6255
 2758WAT     H2 8486   3.428   0.290   0.984 -1.9772 -1.0728  0.2304
 2759WAT      O 8487   2.819   0.968   0.968  0.4950  0.1143  0.2192
 2759WAT     H1 8488   2.767   1.028   0.915 -0.1520 -0.9491 -0.3974
 2759WAT     H2 8489   2.757   0.900   0.995  1.6058 -1.4090 -0.8535
 2760WAT      O 8490   3.623   1.753   2.169 -0.1981  0.2203 -0.1825
 2760WAT     H1 8491   3.580   1.691   2.227  1.1020 -0.3775  0.2001
 2760WAT     H2 8492   3.690   1.795   2.224  0.8091 -0.0847 -1.1275
 2761WAT      O 8493   2.580   1.962   0.889  0.1956 -0.4853  0.2056
 2761WAT     H1 8494   2.496   1.926   0.917  0.2587 -1.5927 -0.9744
 2761WAT     H2 8495   2.556   2.032   0.827  0.1310 -1.4603 -0.9033
 2762WAT      O 8496   1.456   1.521   5.111  0.0849 -0.0733  0.8193
 2762WAT     H1 8497   1.420   1.607   5.134 -0.2004  0.2291 -0.6149
 2762WAT     H2 8498   1.423   1.505   5.022  1.7430 -0.7738  0.2944
 2763WAT      O 8499   4.024   4.186   2.525 -0.1431  0.3604  0.0254
 2763WAT     H1 8500   3.984   4.203   2.439  0.4646  0.9177 -0.1526
 2763WAT     H2 8501   3.987   4.254   2.582 -0.9210 -0.3038  0.3374
 2764WAT      O 8502   3.111   5.327   5.536 -0.1487 -0.8033 -0.1220
 2764WAT     H1 8503   3.206   5.332   5.525 -0.1875  2.1167  0.1375
 2764WAT     H2 8504   3.076   5.352   5.451 -0.6755 -0.6075  0.1488
 2765WAT      O 8505   2.339   0.332   0.773 -0.1638 -0.0331  0.0253
 2765WAT     H1 8506   2.294   0.251   0.794 -0.8744  0.3947  0.1811
 2765WAT     H2 8507   2.276   0.401   0.795  0.3917  0.5552 -0.1968
 2766WAT      O 8508   4.055   0.248   2.969  0.1357 -0.0600  0.0486
 2766WAT     H1 8509   3.995   0.253   3.043 -0.3109 -2.7143 -0.0078
 2766WAT     H2 8510   4.008   0.288   2.896 -0.8133 -0.4598  0.4373
 2767WAT      O 8511   0.645   1.352   3.967 -0.6381  0.1354  0.0608
 2767WAT     H1 8512   0.564   1.300   3.971 -1.2618  0.6393 -3.0099
 2767WAT     H2 8513   0.715   1.287   3.960 -1.1820 -0.3578 -1.1664
 2768WAT      O 8514   0.372   0.083   2.475  0.1183 -0.5097 -0.1437
 2768WAT     H1 8515   0.376   0.039   2.390  1.0881  0.1940 -0.4869
 2768WAT     H2 8516   0.290   0.132   2.473 -0.4195 -1.4095 -0.2097
 2769WAT      O 8517   1.469   3.602   1.380 -0.0302 -1.0189  0.1858
 2769WAT     H1 8518   1.380   3.636   1.389 -0.1868 -0.3762 -2.8709
 2769WAT     H2 8519   1.519   3.673   1.339  1.4909 -1.9636  0.2957
 2770WAT      O 8520   3.943   5.538   3.862  0.4367  0.0558 -0.2874
 2770WAT     H1 8521   3.938   5.444   3.875  0.8496  0.1162  0.3834
 2770WAT     H2 8522   4.034   5.560   3.883  0.2647  0.6433 -0.1392
 2771WAT      O 8523   4.191   2.750   5.028  0.6385 -0.3259  0.0560
 2771WAT     H1 8524   4.219   2.725   5.116  0.4103 -0.8366 -0.0116
 2771WAT     H2 8525   4.251   2.703   4.969 -0.8403 -2.1277 -0.1104
 2772WAT      O 8526   1.839   2.978   3.095 -0.4116  0.2689  0.2656
 2772WAT     H1 8527   1.757   3.025   3.110 -0.1016  1.3563 -1.1865
 2772WAT     H2 8528   1.813   2.897   3.050 -0.7025  0.6086 -0.1863
 2773WAT      O 8529   4.218   0.062   4.216 -0.4737 -0.2677  0.2097
 2773WAT     H1 8530   4.296   0.075   4.269  0.2048  2.4340 -1.2854
 2773WAT     H2 8531   4.145   0.076   4.276  0.2251  0.2091  0.9689
 2774WAT      O 8532   4.849   0.310   3.147  0.4428  0.0884  0.4113
 2774WAT     H1 8533   4.763   0.306   3.105 -0.6064 -0.0139  2.4179
 2774WAT     H2 8534   4.872   0.403   3.148  0.3439  0.1173 -0.1180
 2775WAT      O 8535   3.306   5.528   3.525  0.1833  0.3982 -0.0039
 2775WAT     H1 8536   3.249   5.452   3.538  2.4194 -1.3226  0.4129
 2775WAT     H2 8537   3.274   5.568   3.444 -0.3080 -1.7708 -0.9671
 2776WAT      O 8538   4.094   3.611   1.870 -0.1654  0.3602 -0.0822
 2776WAT     H1 8539   4.024   3.634   1.809  0.2270  0.5552 -0.4607
 2776WAT     H2 8540   4.158   3.563   1.817 -0.5136 -0.7654  0.4923
 2777WAT      O 8541   1.712   0.523   5.626  0.3223 -0.1049  0.3883
 2777WAT     H1 8542   1.756   0.442   5.598 -1.2257 -0.7158 -0.3643
 2777WAT     H2 8543   1.693   0.509   5.719  2.5785  0.6036  1.0303
 2778WAT      O 8544   0.074   4.463   3.214 -0.5516 -0.5865  0.1280
 2778WAT     H1 8545   0.159   4.499   3.190 -0.6413  1.0677  2.0387
 2778WAT     H2 8546   0.036   4.435   3.130  0.6245  1.4581 -1.1907
 2779WAT      O 8547   3.854   3.648   4.971 -0.3193  0.0145 -0.4264
 2779WAT     H1 8548   3.818   3.572   4.925 -3.3491  2.0705 -1.8191
 2779WAT     H2 8549   3.907   3.692   4.905  0.0989 -0.0433 -0.1298
 2780WAT      O 8550   2.693   2.368   2.386  0.0469  0.2959 -0.0239
 2780WAT     H1 8551   2.743   2.328   2.457  0.1034 -0.2670 -0.3737
 2780WAT     H2 8552   2.755   2.429   2.344  0.9789 -1.5467 -1.4511
 2781WAT      O 8553   0.522   0.575   2.418  0.0941  0.3910 -0.4469
 2781WAT     H1 8554   0.442   0.585   2.469  0.7137 -1.3207  0.9716
 2781WAT     H2 8555   0.525   0.482   2.395  1.5892  0.4437 -0.5817
 2782WAT      O 8556   4.641   3.110   2.653  0.1768 -0.2187  0.1829
 2782WAT     H1 8557   4.686   3.050   2.712 -1.2643 -1.5319  0.0210
 2782WAT     H2 8558   4.673   3.087   2.566 -0.0563 -0.4612  0.1609
 2783WAT      O 8559   3.883   0.524   3.588  0.2056 -0.0950  0.2943
 2783WAT     H1 8560   3.916   0.606   3.552  0.5063 -0.0061  0.7604
 2783WAT     H2 8561   3.899   0.459   3.520  0.4740  0.1325  0.1399
 2784WAT      O 8562   3.300   0.826   3.908  0.3939  0.4820 -0.4378
 2784WAT     H1 8563   3.212   0.864   3.918  0.3285  0.5986 -1.3422
 2784WAT     H2 8564   3.317   0.784   3.992  0.2061  1.9620  0.3943
 2785WAT      O 8565   0.938   3.936   3.931  0.1709 -0.3358  0.3606
 2785WAT     H1 8566   1.018   3.900   3.969 -1.6874 -2.9299  2.1880
 2785WAT     H2 8567   0.867   3.890   3.976 -2.5133  3.7594  0.8338
 2786WAT      O 8568   3.385   1.142   1.130  0.1934 -0.1892 -0.9171
 2786WAT     H1 8569   3.444   1.208   1.166 -1.2132  0.5093  0.1833
 2786WAT     H2 8570   3.432   1.107   1.054  0.2782  3.3309 -2.6700
 2787WAT      O 8571   3.594   2.689   3.486  0.3463  0.5581  0.1829
 2787WAT     H1 8572   3.625   2.637   3.411  0.3226  1.3458 -0.3889
 2787WAT     H2 8573   3.572   2.624   3.553 -0.3275 -0.2117 -0.7502
 2788WAT      O 8574   2.233   4.162   0.478 -0.0835  0.2333  0.0128
 2788WAT     H1 8575   2.159   4.115   0.439 -0.7943  0.8214  0.6192
 2788WAT     H2 8576   2.310   4.115   0.447 -0.7840 -2.4284  1.8623
 2789WAT      O 8577   2.951   2.593   4.872 -0.3036  0.9435 -0.0583
 2789WAT     H1 8578   2.864   2.584   4.836 -0.3965 -0.0038  0.3534
 2789WAT     H2 8579   2.937   2.605   4.966  0.0126 -1.6397  0.4063
 2790WAT      O 8580   3.014   5.049   0.089 -0.1479  0.3746  0.2666
 2790WAT     H1 8581   3.049   5.050  -0.000  1.1913 -1.6019  0.7042
 2790WAT     H2 8582   2.930   5.005   0.081 -0.0734  0.2839 -0.0300
 2791WAT      O 8583   3.302   2.319   1.004 -0.7086  0.4312  0.5720
 2791WAT     H1 8584   3.280   2.230   0.976  0.6730  0.6023 -1.2317
 2791WAT     H2 8585   3.351   2.307   1.086 -0.0108 -0.5226  0.0289
 2792WAT      O 8586   2.137   3.785   0.091  0.8150 -0.0495 -0.2824
 2792WAT     H1 8587   2.077   3.823   0.156  0.3146  1.6493 -1.6529
 2792WAT     H2 8588   2.135   3.691   0.109 -1.5352  0.0485  0.3506
 2793WAT      O 8589   3.512   0.152   1.754 -0.0850 -0.0337  0.0689
 2793WAT     H1 8590   3.477   0.066   1.778  1.3366 -0.6545  0.0443
 2793WAT     H2 8591   3.483   0.166   1.664  0.1286 -0.7499 -0.1177
 2794WAT      O 8592   1.593   1.122   5.266  0.3215 -0.1350  0.3944
 2794WAT     H1 8593   1.612   1.190   5.330 -2.3707 -0.7712  2.0176
 2794WAT     H2 8594   1.640   1.045   5.297  0.7212  0.1045  0.3889
 2795WAT      O 8595   2.050   3.745   3.155  0.7042  0.2885 -0.2965
 2795WAT     H1 8596   2.023   3.664   3.112  0.2905  0.3278 -0.1124
 2795WAT     H2 8597   2.122   3.719   3.213  1.1200  0.1987 -0.8525
 2796WAT      O 8598   2.330   3.841   0.470  0.5188  0.3254 -0.2800
 2796WAT     H1 8599   2.407   3.812   0.519  1.7943  2.3700 -0.9565
 2796WAT     H2 8600   2.365   3.901   0.404 -1.3188 -1.0549 -2.6705
 2797WAT      O 8601   0.719   1.914   2.464  0.0520  0.3218  0.3712
 2797WAT     H1 8602   0.726   1.994   2.517 -0.1345  0.2419  0.5165
 2797WAT     H2 8603   0.723   1.843   2.528 -3.0916  0.2458  0.6432
 2798WAT      O 8604   0.895   3.516   4.620  0.2247 -0.0674  0.0917
 2798WAT     H1 8605   0.877   3.458   4.546 -0.1149 -2.5858  2.0019
 2798WAT     H2 8606   0.985   3.496   4.645  0.1732  0.3700  0.6612
 2799WAT      O 8607   4.244   2.335   3.724  0.2655 -0.2968 -1.2295
 2799WAT     H1 8608   4.199   2.251   3.719  1.7411 -1.1225 -1.2360
 2799WAT     H2 8609   4.275   2.340   3.814 -1.8568  1.3966 -0.5044
 2800WAT      O 8610   1.419   4.709   4.714  0.6335  0.4088  0.3493
 2800WAT     H1 8611   1.505   4.677   4.744  1.7403  1.5537 -1.4183
 2800WAT     H2 8612   1.360   4.635   4.728  2.3940 -1.2509 -0.5232
 2801WAT      O 8613   1.033   5.550   0.815 -0.0019  0.5769 -0.2007
 2801WAT     H1 8614   0.972   5.623   0.810 -1.3158 -0.4787 -0.3488
 2801WAT     H2 8615   1.103   5.580   0.874 -1.2870  1.4096  0.9686
 2802WAT      O 8616   3.113   4.692   2.733  0.2542  0.3223  0.0884
 2802WAT     H1 8617   3.060   4.639   2.674  0.2707  0.4368 -0.0313
 2802WAT     H2 8618   3.171   4.630   2.776  0.5495  0.2930 -0.3459
 2803WAT      O 8619   2.260   1.129   0.650  0.2024  0.6412 -0.3103
 2803WAT     H1 8620   2.208   1.071   0.595 -0.3470  1.1112 -0.2976
 2803WAT     H2 8621   2.202   1.203   0.669  0.3753  0.4963  0.8958
 2804WAT      O 8622   1.790   3.712   2.607  0.3884 -0.2578  0.3632
 2804WAT     H1 8623   1.730   3.719   2.533  1.4584  1.3713 -0.4091
 2804WAT     H2 8624   1.733   3.720   2.684 -0.4858  0.4971 -0.3327
 2805WAT      O 8625   4.796   2.932   2.799  0.2239 -0.7094  0.2038
 2805WAT     H1 8626   4.779   2.947   2.892  0.0017 -3.3376  0.6756
 2805WAT     H2 8627   4.891   2.930   2.791  0.3977  3.0391 -0.3869
 2806WAT      O 8628   4.427   4.758   3.371 -0.5107 -0.6658  0.4993
 2806WAT     H1 8629   4.411   4.797   3.457 -1.4717 -0.3506  0.1908
 2806WAT     H2 8630   4.476   4.678   3.390  3.1583  1.4923  1.0228
 2807WAT      O 8631   0.883   4.778   5.424 -0.0893 -0.6614 -0.0020
 2807WAT     H1 8632   0.922   4.814   5.344 -0.5170  1.9099  0.8425
 2807WAT     H2 8633   0.845   4.695   5.397  2.3065 -1.3091 -1.7754
 2808WAT      O 8634   4.550   4.497   3.435  0.2635  0.0552 -0.0772
 2808WAT     H1 8635   4.537   4.471   3.344  2.4249  1.4029 -0.8487
 2808WAT     H2 8636   4.482   4.449   3.484 -0.2768 -1.5105 -2.2227
 2809WAT      O 8637   0.866   3.687   1.242 -0.1789 -0.7350  0.3324
 2809WAT     H1 8638   0.903   3.681   1.330 -3.8541 -0.7007  2.0749
 2809WAT     H2 8639   0.821   3.603   1.229  0.2449 -0.7172 -1.5311
 2810WAT      O 8640   1.784   5.665   4.074  0.6058  0.3746  0.2535
 2810WAT     H1 8641   1.808   5.611   3.999  1.3899 -0.5199  1.1270
 2810WAT     H2 8642   1.689   5.653   4.081 -0.0041  2.6975 -2.2544
 2811WAT      O 8643   2.300   0.468   4.475  0.2815 -0.5617  0.0178
 2811WAT     H1 8644   2.383   0.507   4.501 -0.1744  1.3512 -1.1620
 2811WAT     H2 8645   2.321   0.416   4.397  0.5201 -0.9055  0.3063
 2812WAT      O 8646   3.961   5.095   4.828 -0.5456  0.3129 -0.4327
 2812WAT     H1 8647   4.044   5.060   4.859 -0.9354 -0.0678  0.2059
 2812WAT     H2 8648   3.976   5.114   4.735  0.2487  0.2499 -0.3208
 2813WAT      O 8649   0.351   4.901   3.982 -0.4160 -0.4178 -0.1870
 2813WAT     H1 8650   0.285   4.922   4.049 -0.2189 -0.6384  0.0818
 2813WAT     H2 8651   0.344   4.806   3.971  0.7518 -0.6570  0.8172
 2814WAT      O 8652   1.345   1.113   5.327 -0.6868  0.0433  0.0539
 2814WAT     H1 8653   1.344   1.058   5.405 -1.6820  1.6149  1.2198
 2814WAT     H2 8654   1.437   1.129   5.310 -0.4593  0.0798  1.2213
 2815WAT      O 8655   0.515   4.274   3.948 -0.3389 -0.2473 -0.2683
 2815WAT     H1 8656   0.473   4.292   3.864 -0.6260 -0.8356 -0.2554
 2815WAT     H2 8657   0.524   4.179   3.950  1.1487 -0.1296 -0.3428
 2816WAT      O 8658   2.567   4.005   1.429 -0.3316  0.1676 -0.7920
 2816WAT     H1 8659   2.640   3.966   1.381 -1.1505 -1.3076 -0.8788
 2816WAT     H2 8660   2.587   3.987   1.521 -1.5597 -2.1477 -0.8961
 2817WAT      O 8661   4.286   2.178   1.938 -0.5924  0.1876  0.3563
 2817WAT     H1 8662   4.309   2.124   2.013  0.8736  0.0946 -0.1359
 2817WAT     H2 8663   4.364   2.177   1.883 -0.4097  3.0135  0.4306
 2818WAT      O 8664   0.163   2.926   4.705  0.1858 -0.0337 -0.2001
 2818WAT     H1 8665   0.147   2.914   4.611  0.0639  0.0516 -0.1912
 2818WAT     H2 8666   0.257   2.915   4.715  0.0702 -1.0658 -0.1764
 2819WAT      O 8667   2.578   4.973   0.355  0.1220 -0.2074 -0.1760
 2819WAT     H1 8668   2.656   4.918   0.352  0.8036  0.7410 -0.0633
 2819WAT     H2 8669   2.598   5.047   0.298  0.6391  1.7376  2.3630
 2820WAT      O 8670   0.061   4.691   3.508 -0.6296 -0.1096 -0.4727
 2820WAT     H1 8671  -0.018   4.673   3.457  0.0936  2.8302 -2.9046
 2820WAT     H2 8672   0.057   4.784   3.527  1.5941 -0.1540  0.5730
 2821WAT      O 8673   1.626   0.320   4.955  0.7377 -0.3004  0.1017
 2821WAT     H1 8674   1.535   0.294   4.967  1.0571 -2.3291 -1.3363
 2821WAT     H2 8675   1.674   0.274   5.024  0.5772  1.8913  1.7713
 2822WAT      O 8676   4.660   2.627   4.841  0.1714 -0.5128 -0.9418
 2822WAT     H1 8677   4.704   2.548   4.871 -2.6280 -1.4628  1.1288
 2822WAT     H2 8678   4.730   2.691   4.829  2.1218 -1.9573  1.8172
 2823WAT      O 8679   2.231   4.944   4.802 -0.2108 -0.0927 -0.2757
 2823WAT     H1 8680   2.189   4.997   4.870  0.3499 -0.9664  0.7709
 2823WAT     H2 8681   2.201   4.983   4.720 -1.6778  0.3824  0.4549
 2824WAT      O 8682   0.459   4.617   4.994  0.5131 -0.2326 -0.0745
 2824WAT     H1 8683   0.513   4.564   5.052  0.7569  1.6021  1.4741
 2824WAT     H2 8684   0.379   4.565   4.982  0.4227 -0.6722  1.9929
 2825WAT      O 8685   1.146   4.006   4.713  0.3878 -0.3496  0.1603
 2825WAT     H1 8686   1.064   4.033   4.671  0.9078 -1.0410 -1.3610
 2825WAT     H2 8687   1.127   3.919   4.747  0.6260 -0.7287 -0.6519
 2826WAT      O 8688   2.409   0.574   5.228  0.6291 -0.4879 -0.0323
 2826WAT     H1 8689   2.474   0.504   5.225 -0.9770 -2.0125 -1.1372
 2826WAT     H2 8690   2.348   0.553   5.158 -0.6103  1.3519  0.4240
 2827WAT      O 8691   1.315   2.851   4.818 -0.6719  0.1336  0.1158
 2827WAT     H1 8692   1.220   2.855   4.829 -0.8462 -0.8390 -0.8247
 2827WAT     H2 8693   1.329   2.865   4.724  0.1951  1.1073  0.3672
 2828WAT      O 8694   0.349   3.600   3.044  0.0601  0.3310 -0.4481
 2828WAT     H1 8695   0.275   3.654   3.015  0.9151  0.7611 -1.9423
 2828WAT     H2 8696   0.419   3.620   2.982  0.9618 -1.2127  0.0193
 2829WAT      O 8697   1.677   2.172   1.287 -0.2742 -0.0844  0.0601
 2829WAT     H1 8698   1.691   2.143   1.197 -2.4076  1.5465 -0.8610
 2829WAT     H2 8699   1.765   2.195   1.319  0.5787 -1.2044 -1.3798
 2830WAT      O 8700   0.891   4.045   4.561 -0.2172 -0.2975 -0.1328
 2830WAT     H1 8701   0.950   4.120   4.549  0.8988 -1.5131 -3.3462
 2830WAT     H2 8702   0.805   4.078   4.538 -0.2797  0.6843  1.3911
 2831WAT      O 8703   1.815   0.250   0.164  0.2509  0.1773 -0.2278
 2831WAT     H1 8704   1.821   0.168   0.212  1.4969  0.0258 -0.6320
 2831WAT     H2 8705   1.820   0.226   0.072  0.8401  0.7179 -0.3452
 2832WAT      O 8706   1.216   3.258   2.836 -0.0517 -0.3568 -0.6841
 2832WAT     H1 8707   1.169   3.317   2.895  0.0204 -1.4261  0.4946
 2832WAT     H2 8708   1.159   3.251   2.759 -1.9876 -1.7254  0.7583
 2833WAT      O 8709   3.624   0.612   5.256 -0.7009  0.9046 -0.3711
 2833WAT     H1 8710   3.717   0.605   5.235 -0.6392  0.7750 -0.0617
 2833WAT     H2 8711   3.620   0.605   5.351 -1.0832  0.3058 -0.4242
 2834WAT      O 8712   4.615   1.894   2.492  0.1460 -0.1304  0.3853
 2834WAT     H1 8713   4.580   1.976   2.458 -0.6044 -0.8373 -0.6393
 2834WAT     H2 8714   4.697   1.881   2.445 -0.1262 -0.3486 -0.0329
 2835WAT      O 8715   1.424   3.868   3.174  0.3636 -0.1617  0.2278
 2835WAT     H1 8716   1.426   3.788   3.121 -1.6811 -1.1029  1.4270
 2835WAT     H2 8717   1.471   3.844   3.254 -0.4440 -0.2511  0.6816
 2836WAT      O 8718   2.064   0.111   5.360 -0.7305  0.1233  0.7374
 2836WAT     H1 8719   2.021   0.057   5.294 -1.3587  1.9033 -0.3881
 2836WAT     H2 8720   2.141   0.060   5.386 -0.0225 -0.3199 -1.9507
 2837WAT      O 8721   1.976   3.279   4.394  0.0839  1.0775  0.0217
 2837WAT     H1 8722   2.070   3.274   4.412  0.1594 -0.8166 -0.6749
 2837WAT     H2 8723   1.964   3.365   4.354  2.1855  0.0582 -3.1959
 2838WAT      O 8724   2.714   2.988   0.917 -0.4855 -0.1054  0.3523
 2838WAT     H1 8725   2.764   2.907   0.929 -0.6385 -0.1418  0.7566
 2838WAT     H2 8726   2.666   2.974   0.835 -0.5142 -0.4282  0.4213
 2839WAT      O 8727   1.028   2.989   3.937  0.5743  0.1528  0.1343
 2839WAT     H1 8728   1.100   2.953   3.988 -1.2606 -2.6642  1.0203
 2839WAT     H2 8729   0.969   3.027   4.002 -0.0952 -0.2131 -0.2474
 2840WAT      O 8730   2.829   5.590   0.409 -0.5629  0.2657 -0.3051
 2840WAT     H1 8731   2.742   5.583   0.369 -0.6180 -1.7877  0.0564
 2840WAT     H2 8732   2.823   5.666   0.467 -1.8922  0.5709 -0.8032
 2841WAT      O 8733   1.275   2.541   5.017 -0.2458 -0.8009 -0.1306
 2841WAT     H1 8734   1.202   2.553   4.957 -1.1918 -1.1076  0.9115
 2841WAT     H2 8735   1.260   2.454   5.056  0.0496 -0.4079  0.8992
 2842WAT      O 8736   3.887   2.218   2.308  0.4049  0.3113 -0.0488
 2842WAT     H1 8737   3.959   2.281   2.316  1.5627 -1.0740  0.9749
 2842WAT     H2 8738   3.816   2.255   2.360  0.2994  1.7630 -1.1711
 2843WAT      O 8739   2.047   4.507   5.074 -0.4583  0.5840  0.1149
 2843WAT     H1 8740   2.078   4.579   5.019  0.0303  0.5534  0.3465
 2843WAT     H2 8741   2.044   4.431   5.016  0.7440  0.3854  0.2939
 2844WAT      O 8742   2.192   5.355   3.041  0.3757 -0.2853 -0.1640
 2844WAT     H1 8743   2.203   5.277   2.987 -1.3010 -1.8797  1.6130
 2844WAT     H2 8744   2.115   5.399   3.006  0.0491 -0.6174  0.1308
 2845WAT      O 8745   2.502   3.770   0.645 -0.6247 -0.2604 -0.7528
 2845WAT     H1 8746   2.588   3.780   0.604 -1.3981 -4.1525 -3.8999
 2845WAT     H2 8747   2.520   3.721   0.726  0.2407  0.6539 -0.3738
 2846WAT      O 8748   1.942   2.594   1.530  0.4149  0.3451  0.3041
 2846WAT     H1 8749   1.861   2.627   1.569  0.3310  0.6193 -0.0869
 2846WAT     H2 8750   1.988   2.552   1.602  1.2393  2.6261  1.1993
 2847WAT      O 8751   4.230   0.751   5.022 -0.1827  0.3725 -0.1020
 2847WAT     H1 8752   4.298   0.794   5.075 -0.0114  0.1857 -0.1677
 2847WAT     H2 8753   4.176   0.823   4.990 -0.4986  0.4536  0.6180
 2848WAT      O 8754   0.269   5.582   4.158  0.2343 -0.3319  0.7237
 2848WAT     H1 8755   0.225   5.664   4.182 -1.0253 -1.3945  2.2896
 2848WAT     H2 8756   0.199   5.517   4.156  0.8871 -1.0695 -2.4340
 2849WAT      O 8757   2.200   3.884   1.140 -0.2610  0.3747 -0.2278
 2849WAT     H1 8758   2.274   3.856   1.086 -0.9760 -1.2859 -0.3972
 2849WAT     H2 8759   2.238   3.901   1.226  0.7659  2.3191 -0.9882
 2850WAT      O 8760   2.522   4.975   4.859 -0.4318  0.3494 -0.4141
 2850WAT     H1 8761   2.429   4.954   4.851 -0.1041 -2.1304  1.1468
 2850WAT     H2 8762   2.566   4.899   4.820  0.9184  0.6133  0.5436
 2851WAT      O 8763   1.115   1.623   4.559  0.2837 -0.0703  0.1562
 2851WAT     H1 8764   1.041   1.647   4.615 -0.3331  2.1274 -1.4656
 2851WAT     H2 8765   1.111   1.527   4.555 -1.0136 -0.1531  2.0044
 2852WAT      O 8766   1.538   3.366   0.247  0.1465 -0.1344  0.4561
 2852WAT     H1 8767   1.514   3.352   0.155  0.6758 -0.5680  0.3810
 2852WAT     H2 8768   1.457   3.351   0.296  0.2321 -1.5057  0.1990
 2853WAT      O 8769   1.204   3.808   4.031 -0.1774 -0.4298  0.4345
 2853WAT     H1 8770   1.260   3.831   4.106  0.9672 -1.1004 -0.1905
 2853WAT     H2 8771   1.265   3.778   3.964 -1.2525 -0.5740 -0.5025
 2854WAT      O 8772   2.557   0.538   0.221 -1.1032  0.0154  0.7939
 2854WAT     H1 8773   2.516   0.516   0.138  1.2407 -1.4399 -0.0596
 2854WAT     H2 8774   2.504   0.492   0.287 -2.1485  0.0480  0.0016
 2855WAT      O 8775   0.342   3.698   4.274  0.0375  0.7397  0.4685
 2855WAT     H1 8776   0.295   3.618   4.252  1.0238  0.4052 -0.5558
 2855WAT     H2 8777   0.313   3.762   4.209  2.3416 -0.0160 -1.4826
 2856WAT      O 8778   4.644   1.200   4.883 -0.6002  0.2010 -0.4096
 2856WAT     H1 8779   4.673   1.194   4.973 -1.4905 -0.0853 -0.1288
 2856WAT     H2 8780   4.723   1.185   4.831 -0.1572 -0.0293  0.3185
 2857WAT      O 8781   2.488   3.701   1.356 -0.2994  0.3882  0.2071
 2857WAT     H1 8782   2.432   3.770   1.390 -1.5878 -1.3582  1.8538
 2857WAT     H2 8783   2.428   3.630   1.333  0.9814 -0.2697 -1.3431
 2858WAT      O 8784   1.254   3.226   3.296 -0.3924 -0.2479  0.0653
 2858WAT     H1 8785   1.244   3.197   3.205 -0.5374 -1.2559  0.3948
 2858WAT     H2 8786   1.286   3.149   3.343  0.8033  0.5794  0.6601
 2859WAT      O 8787   0.040   1.866   2.778 -0.6522 -0.0860  0.2843
 2859WAT     H1 8788  -0.052   1.853   2.754 -0.3127 -0.3998 -0.9586
 2859WAT     H2 8789   0.062   1.951   2.739  0.1636 -1.0194 -1.4128
 2860WAT      O 8790   1.232   0.899   4.103  0.6313 -0.6890  0.8310
 2860WAT     H1 8791   1.145   0.938   4.115  1.0362  0.3559  0.4560
 2860WAT     H2 8792   1.292   0.973   4.109  1.5395 -1.4610  1.4809
 2861WAT      O 8793   1.537   4.749   3.555  0.1080  0.3810 -0.4457
 2861WAT     H1 8794   1.553   4.684   3.623 -1.2054  1.4218  0.9241
 2861WAT     H2 8795   1.469   4.709   3.500 -1.4419  0.9493  0.9887
 2862WAT      O 8796   3.783   5.483   4.506 -0.3856  0.0677  0.0680
 2862WAT     H1 8797   3.765   5.501   4.598 -0.6984 -1.6712  0.3696
 2862WAT     H2 8798   3.878   5.483   4.499 -0.2963 -1.9491  0.8786
 2863WAT      O 8799   0.939   0.013   2.089  0.2515  0.1471 -0.1331
 2863WAT     H1 8800   0.884  -0.023   2.158 -0.9459  2.7473  0.3810
 2863WAT     H2 8801   0.985   0.086   2.131  2.2662 -0.4312 -1.2047
 2864WAT      O 8802   3.299   4.845   4.354 -0.0042  0.4882  0.2310
 2864WAT     H1 8803   3.228   4.853   4.417  0.3003 -0.9746  0.7922
 2864WAT     H2 8804   3.374   4.884   4.398  0.4477 -1.3945  1.2252
 2865WAT      O 8805   0.521   4.829   3.632 -0.0990 -0.5616 -0.4514
 2865WAT     H1 8806   0.566   4.756   3.673  0.0660  0.8478  2.0941
 2865WAT     H2 8807   0.468   4.789   3.563  0.7353 -2.9255  0.1859
 2866WAT      O 8808   1.342   1.678   3.788  0.2310 -0.6955  0.0656
 2866WAT     H1 8809   1.279   1.715   3.850  2.0057  2.2664  0.2496
 2866WAT     H2 8810   1.348   1.743   3.719  2.0666 -1.5649 -0.6436
 2867WAT      O 8811   0.978   0.300   4.946  0.2893  0.0886  0.4513
 2867WAT     H1 8812   1.047   0.331   5.005  0.7430 -0.1800  0.0730
 2867WAT     H2 8813   0.923   0.377   4.931  0.8928  0.4878  0.2240
 2868WAT      O 8814   2.085   1.469   4.572 -0.0233 -0.3563  0.6101
 2868WAT     H1 8815   2.095   1.472   4.667  0.1253 -1.3219  0.6363
 2868WAT     H2 8816   2.174   1.460   4.539 -0.1603 -1.1506  0.4426
 2869WAT      O 8817   0.159   2.665   3.729 -0.1281 -0.0382  0.1419
 2869WAT     H1 8818   0.158   2.731   3.659  0.9145  1.0816  1.1429
 2869WAT     H2 8819   0.067   2.639   3.738 -0.5071  0.9894 -0.5469
 2870WAT      O 8820   0.203   5.468   3.880  0.2091 -0.0122  0.4101
 2870WAT     H1 8821   0.257   5.433   3.809  0.1212 -0.1181  0.3938
 2870WAT     H2 8822   0.193   5.394   3.940  1.3193  0.4178  1.1615
 2871WAT      O 8823   0.609   0.216   4.719  0.6241 -0.2768 -0.3730
 2871WAT     H1 8824   0.530   0.264   4.693  1.1306  0.2961 -0.8617
 2871WAT     H2 8825   0.648   0.188   4.636  0.2823 -1.6375 -0.0966
 2872WAT      O 8826   1.272   3.235   5.746  0.4444 -0.1937 -0.5093
 2872WAT     H1 8827   1.261   3.145   5.777 -0.4322 -0.3994 -1.3738
 2872WAT     H2 8828   1.196   3.251   5.690  0.7041  1.0116 -0.5538
 2873WAT      O 8829   0.115   4.830   4.488  0.2078 -0.0670  0.0062
 2873WAT     H1 8830   0.175   4.775   4.539 -1.6536 -1.6028  0.6521
 2873WAT     H2 8831   0.046   4.770   4.460 -2.0649  1.9848  0.9228
 2874WAT      O 8832   0.986   4.393   3.735  0.1969  0.1747 -0.2165
 2874WAT     H1 8833   1.056   4.397   3.799 -0.1022  1.9717  0.0442
 2874WAT     H2 8834   1.005   4.464   3.674 -0.5218 -0.3416 -1.0628
 2875WAT      O 8835   4.025   5.416   4.663 -0.1354  0.2309  0.2068
 2875WAT     H1 8836   4.001   5.323   4.657 -0.0750  0.2050  0.3748
 2875WAT     H2 8837   4.120   5.417   4.652 -0.1425  0.2788  0.1472
 2876WAT      O 8838   0.801   5.568   2.317 -0.7118  0.0257 -0.0581
 2876WAT     H1 8839   0.798   5.550   2.411  0.0175 -1.2837 -0.2512
 2876WAT     H2 8840   0.830   5.485   2.279  0.4225  0.9548 -1.3068
 2877WAT      O 8841   3.221   3.998   5.673 -0.5970 -0.1029  0.2465
 2877WAT     H1 8842   3.162   3.998   5.749 -0.7008  0.3017  0.1670
 2877WAT     H2 8843   3.181   4.058   5.611  0.7239  1.5045  0.8586
 2878WAT      O 8844   1.639   3.173   0.420  0.5212 -0.5767 -0.8948
 2878WAT     H1 8845   1.731   3.161   0.445 -0.2969  0.0945  3.0061
 2878WAT     H2 8846   1.637   3.259   0.377  1.5013  0.3879  0.8554
 2879WAT      O 8847   1.725   2.932   3.823 -0.3065  0.2232 -0.2202
 2879WAT     H1 8848   1.791   2.973   3.879  1.9177  0.7542 -2.9560
 2879WAT     H2 8849   1.712   2.845   3.860  0.2848  0.8908  1.6423
 2880WAT      O 8850   2.727   4.360   0.882 -0.3456  0.0449 -0.2754
 2880WAT     H1 8851   2.789   4.403   0.823  0.3436  0.2662  0.5771
 2880WAT     H2 8852   2.675   4.432   0.918  0.6834  0.1798  1.0116
 2881WAT      O 8853   3.635   0.052   1.062 -0.3105  0.2465 -0.5217
 2881WAT     H1 8854   3.682  -0.017   1.017 -1.4135  0.2631 -1.7608
 2881WAT     H2 8855   3.579   0.091   0.995 -0.8910  1.2826  0.5187
 2882WAT      O 8856   0.849   4.176   1.547 -0.1305  0.5023  0.4048
 2882WAT     H1 8857   0.863   4.259   1.502  0.6948 -0.2849 -0.8860
 2882WAT     H2 8858   0.919   4.172   1.612 -1.3000  1.6265  1.7922
 2883WAT      O 8859   2.570   4.196   1.866 -0.0803  0.1909  0.5752
 2883WAT     H1 8860   2.635   4.262   1.841  0.2985 -0.1275  0.7010
 2883WAT     H2 8861   2.491   4.221   1.819  0.0437  0.7658  0.6639
 2884WAT      O 8862   2.189   3.421   4.975 -0.1005  0.7603 -0.0447
 2884WAT     H1 8863   2.233   3.378   4.902  1.4741  0.1421  1.2201
 2884WAT     H2 8864   2.252   3.485   5.007 -0.9305  1.3125  0.5403
 2885WAT      O 8865   4.745   3.110   4.506 -0.0807 -0.4617  0.0823
 2885WAT     H1 8866   4.733   3.180   4.441 -1.8411  0.2038  1.0472
 2885WAT     H2 8867   4.839   3.109   4.523 -0.0997  2.7066  1.0827
 2886WAT      O 8868   2.959   1.536   3.243 -0.1627  0.1834 -0.1372
 2886WAT     H1 8869   3.001   1.450   3.234  1.9002  1.0100  1.0720
 2886WAT     H2 8870   2.964   1.574   3.155  1.0756  0.0159 -0.1512
 2887WAT      O 8871   3.727   3.030   3.698 -0.6812  0.1738 -1.0165
 2887WAT     H1 8872   3.684   2.958   3.744  0.3349 -0.5205 -1.1158
 2887WAT     H2 8873   3.700   3.109   3.745 -1.4137 -0.3165 -0.6030
 2888WAT      O 8874   1.991   0.734   1.419 -0.3698 -0.1680 -0.0466
 2888WAT     H1 8875   1.967   0.641   1.415 -2.0759  0.2396  0.0717
 2888WAT     H2 8876   1.942   0.768   1.494  0.6886  0.7097  0.2582
 2889WAT      O 8877   4.291   5.021   4.488 -0.2904 -0.3761  0.3219
 2889WAT     H1 8878   4.335   5.102   4.461 -0.0023 -0.5194  0.3589
 2889WAT     H2 8879   4.297   5.021   4.583 -0.7586 -0.1799  0.3544
 2890WAT      O 8880   4.740   2.030   3.105  0.3277  0.1535  0.1218
 2890WAT     H1 8881   4.834   2.048   3.096  0.3712  1.0586  1.9089
 2890WAT     H2 8882   4.731   1.938   3.081  1.5445  0.2552 -0.8171
 2891WAT      O 8883   1.612   4.787   4.993 -0.1084 -0.0895  0.1364
 2891WAT     H1 8884   1.691   4.796   5.047 -0.4349  0.3585  0.5416
 2891WAT     H2 8885   1.617   4.860   4.931  0.8338 -1.2223 -1.2009
 2892WAT      O 8886   2.659   0.094   4.786 -0.0553  0.8074  0.2731
 2892WAT     H1 8887   2.645   0.188   4.773 -0.7506  0.4892 -1.6123
 2892WAT     H2 8888   2.597   0.052   4.726 -0.8254 -0.9082  2.1350
 2893WAT      O 8889   0.254   4.448   4.956  0.1999  0.2900 -0.0249
 2893WAT     H1 8890   0.253   4.378   5.021  0.3200 -0.1285 -0.4717
 2893WAT     H2 8891   0.214   4.409   4.878  0.4997  0.6408 -0.3562
 2894WAT      O 8892   0.103   4.789   1.961 -0.1775 -0.0392 -0.1006
 2894WAT     H1 8893   0.049   4.712   1.979 -2.0927  1.5121  1.1811
 2894WAT     H2 8894   0.085   4.810   1.869  0.4746 -1.1721 -0.5028
 2895WAT      O 8895   3.901   3.733   4.720 -0.2148 -0.1835 -0.1346
 2895WAT     H1 8896   3.947   3.670   4.664 -0.6030  0.9380 -1.8095
 2895WAT     H2 8897   3.812   3.734   4.687 -0.4012  0.6822  0.3693
 2896WAT      O 8898   0.929   5.070   2.156  0.4013  0.1115  0.1810
 2896WAT     H1 8899   0.963   4.980   2.153 -0.2680 -0.1312 -0.8130
 2896WAT     H2 8900   1.007   5.125   2.162  0.8605 -0.5165  0.0681
 2897WAT      O 8901   3.342   5.476   4.711  0.4365 -0.2592  0.2457
 2897WAT     H1 8902   3.340   5.489   4.617  2.9746  0.1019  0.1608
 2897WAT     H2 8903   3.353   5.563   4.748  0.3272 -0.4802  0.8175
 2898WAT      O 8904   3.049   3.223   5.144 -0.4607 -0.4410  0.3676
 2898WAT     H1 8905   3.117   3.276   5.186 -0.8896  0.3747  0.0528
 2898WAT     H2 8906   2.994   3.287   5.098 -0.7638 -1.1965 -0.3386
 2899WAT      O 8907   0.305   4.190   2.821 -0.2022  0.4360  0.4055
 2899WAT     H1 8908   0.325   4.282   2.804 -2.5293  1.1008  0.8471
 2899WAT     H2 8909   0.237   4.169   2.757  1.2134 -1.4280 -0.5893
 2900WAT      O 8910   1.445   4.900   4.513 -0.1443 -0.4870 -0.4262
 2900WAT     H1 8911   1.538   4.914   4.495 -0.4747 -0.7264 -2.5994
 2900WAT     H2 8912   1.443   4.847   4.593  1.5564 -0.2633 -0.2084
 2901WAT      O 8913   3.125   2.439   0.829  0.1880 -0.0425 -0.0614
 2901WAT     H1 8914   3.056   2.373   0.828  1.5900 -1.5839 -1.4525
 2901WAT     H2 8915   3.191   2.403   0.888  0.4980  0.6285  0.0046
 2902WAT      O 8916   1.841   3.848   4.177  0.3024 -0.5687  0.3910
 2902WAT     H1 8917   1.899   3.919   4.207 -0.7967  0.3443  0.4460
 2902WAT     H2 8918   1.799   3.883   4.099  0.3442 -1.4915 -0.0523
 2903WAT      O 8919   0.888   4.101   3.379 -0.0136 -0.4427 -0.1199
 2903WAT     H1 8920   0.907   4.066   3.466  0.6454  0.9483  0.3294
 2903WAT     H2 8921   0.919   4.033   3.319 -1.0840 -1.7181  0.7110
 2904WAT      O 8922   1.602   3.443   4.386  0.5786 -0.1710  0.1296
 2904WAT     H1 8923   1.626   3.528   4.351 -1.9508  1.1651  1.4280
 2904WAT     H2 8924   1.663   3.429   4.459  2.1959 -0.3927 -1.2124
 2905WAT      O 8925   2.706   2.052   1.929  0.3794  0.3290 -0.0519
 2905WAT     H1 8926   2.668   2.131   1.966  0.6945  0.8712 -0.8611
 2905WAT     H2 8927   2.794   2.047   1.967  0.1377  0.0046  0.4905
 2906WAT      O 8928   1.392   4.282   5.137 -0.0138 -0.1642 -0.6867
 2906WAT     H1 8929   1.452   4.355   5.146  0.3683 -0.6662  1.0474
 2906WAT     H2 8930   1.447   4.209   5.109  0.1142 -0.4873  0.3729
 2907WAT      O 8931   2.159   4.582   3.813  0.1762 -0.1471 -0.1430
 2907WAT     H1 8932   2.211   4.581   3.893  0.0092  0.0319 -0.0328
 2907WAT     H2 8933   2.189   4.660   3.766 -0.3747  0.2680  0.1751
 2908WAT      O 8934   0.190   4.257   3.834 -0.0340 -0.0855 -0.2089
 2908WAT     H1 8935   0.260   4.282   3.895 -1.0466  0.9865  0.5505
 2908WAT     H2 8936   0.204   4.313   3.758  0.7123 -0.8193 -0.6367
 2909WAT      O 8937   1.104   4.905   2.865 -1.0030 -0.0165  0.1346
 2909WAT     H1 8938   1.152   4.888   2.945  1.7626  1.6098 -1.0555
 2909WAT     H2 8939   1.052   4.984   2.884  0.2259  0.8154  0.1490
 2910WAT      O 8940   3.308   4.687   1.675  0.3386  0.0882 -0.5129
 2910WAT     H1 8941   3.275   4.679   1.585  2.6949  1.2996 -1.5763
 2910WAT     H2 8942   3.229   4.686   1.729 -1.1496 -1.0098 -2.5368
 2911WAT      O 8943   3.424   2.236   3.702 -0.2540 -0.1472 -0.5878
 2911WAT     H1 8944   3.454   2.192   3.781  0.6397  0.8573 -0.3461
 2911WAT     H2 8945   3.366   2.173   3.660 -0.4190 -0.8510  0.6558
 2912WAT      O 8946   4.659   3.473   3.511 -0.4947  0.0926 -0.3076
 2912WAT     H1 8947   4.582   3.470   3.455 -0.5414  1.3031 -0.3400
 2912WAT     H2 8948   4.733   3.478   3.450 -0.3135 -1.7512 -0.2918
 2913WAT      O 8949   2.525   5.074   5.500 -0.3145  0.3943  0.1195
 2913WAT     H1 8950   2.556   5.095   5.412  1.2219  1.1688  0.7994
 2913WAT     H2 8951   2.600   5.093   5.557 -1.6299  1.0565  1.7244
 2914WAT      O 8952   4.077   0.402   4.224 -0.4541  0.4215  0.2143
 2914WAT     H1 8953   4.063   0.308   4.236  0.8789  0.2237  0.3848
 2914WAT     H2 8954   4.049   0.419   4.135 -2.1490  0.1747  0.6630
 2915WAT      O 8955   4.491   3.146   3.472 -0.0632 -0.7414  0.3842
 2915WAT     H1 8956   4.471   3.204   3.546  0.7781 -0.8501  0.7043
 2915WAT     H2 8957   4.421   3.164   3.409 -0.1460  0.1906  0.7226
 2916WAT      O 8958   4.008   1.347   4.489  0.5151  0.0076  0.2029
 2916WAT     H1 8959   4.042   1.259   4.474 -1.7447 -0.9625  0.3425
 2916WAT     H2 8960   4.049   1.375   4.571 -0.6273 -2.0031  1.5481
 2917WAT      O 8961   2.714   0.599   1.583  0.3143 -0.2648  0.3750
 2917WAT     H1 8962   2.805   0.571   1.595  0.6365 -0.4865 -2.0155
 2917WAT     H2 8963   2.663   0.518   1.589  0.8467 -0.9659 -2.8173
 2918WAT      O 8964   4.620  -0.010   3.642  0.4798  0.7901 -0.8943
 2918WAT     H1 8965   4.577   0.066   3.604 -0.3439  1.2713  0.8700
 2918WAT     H2 8966   4.572  -0.026   3.723 -0.4702 -2.6461 -1.9695
 2919WAT      O 8967   4.616   5.077   4.699  0.0516 -0.2697  0.0285
 2919WAT     H1 8968   4.604   5.056   4.792  1.9329 -0.7359  0.2264
 2919WAT     H2 8969   4.632   4.992   4.658 -1.9274 -0.1973 -0.9619
 2920WAT      O 8970   2.234   4.649   1.535  0.1193 -0.1083  0.5753
 2920WAT     H1 8971   2.301   4.649   1.603 -0.0292  0.1508  0.7235
 2920WAT     H2 8972   2.253   4.727   1.483 -0.6058  0.4675  1.1566
 2921WAT      O 8973   3.598   3.786   4.997  0.3767  0.1103  0.1249
 2921WAT     H1 8974   3.608   3.821   4.908  0.1661 -0.7782 -0.2659
 2921WAT     H2 8975   3.688   3.768   5.026  0.7480  3.3410  1.3763
 2922WAT      O 8976   4.521   5.587   2.115 -0.0809 -0.1392  0.1706
 2922WAT     H1 8977   4.436   5.555   2.145 -0.0134  1.3183  2.1174
 2922WAT     H2 8978   4.508   5.681   2.099  1.2977  0.2741  1.2213
 2923WAT      O 8979   4.503   3.842   4.840  0.2421  0.0559 -0.4146
 2923WAT     H1 8980   4.561   3.803   4.775  0.2982  1.5265 -1.2968
 2923WAT     H2 8981   4.531   3.804   4.923  1.5600 -0.3104 -0.9948
 2924WAT      O 8982   1.507   5.344   3.203 -0.5280 -0.0270  0.0650
 2924WAT     H1 8983   1.457   5.411   3.156  1.2872  0.7046 -0.9084
 2924WAT     H2 8984   1.479   5.262   3.164 -0.4989  0.4156 -0.9016
 2925WAT      O 8985   1.256   0.693   2.417 -0.3577 -0.2153 -0.1492
 2925WAT     H1 8986   1.288   0.736   2.497 -1.8213  1.7849 -0.5441
 2925WAT     H2 8987   1.282   0.752   2.346 -0.1992 -1.3085 -1.0185
 2926WAT      O 8988   0.903   4.306   2.780 -0.1528  0.1150 -0.0681
 2926WAT     H1 8989   0.979   4.340   2.827  0.2556  0.6968 -1.0992
 2926WAT     H2 8990   0.863   4.383   2.741 -0.8766 -0.2734 -0.1078
 2927WAT      O 8991   0.554   4.559   3.415  0.1463  0.5129 -0.0115
 2927WAT     H1 8992   0.499   4.633   3.437  0.4499  0.2392  1.7773
 2927WAT     H2 8993   0.494   4.493   3.380 -0.5546  0.5298  1.1342
 2928WAT      O 8994   2.688   3.707   2.710 -0.3888  0.2859  0.5385
 2928WAT     H1 8995   2.669   3.761   2.633 -1.1725  1.8649  1.7513
 2928WAT     H2 8996   2.655   3.620   2.688 -0.4616  0.6674 -0.9418
 2929WAT      O 8997   2.844   2.059   2.282 -0.2757 -0.0027 -0.3757
 2929WAT     H1 8998   2.765   2.010   2.303 -0.6409  1.1987  1.2618
 2929WAT     H2 8999   2.846   2.130   2.346  1.9643  0.1887 -0.5754
 2930WAT      O 9000   2.811   4.902   4.583 -0.0790  0.4255 -0.3278
 2930WAT     H1 9001   2.776   4.985   4.551  1.4096  0.5933 -1.6720
 2930WAT     H2 9002   2.895   4.926   4.623 -0.4604 -0.2247  0.9315
 2931WAT      O 9003   1.917   3.821   1.865 -0.5096  0.3176 -0.1135
 2931WAT     H1 9004   1.981   3.871   1.814  0.4286 -2.4154 -1.8012
 2931WAT     H2 9005   1.968   3.780   1.935 -0.7589 -0.4164 -0.3566
 2932WAT      O 9006   1.127   4.549   4.358 -0.4120  0.1520 -0.0699
 2932WAT     H1 9007   1.040   4.529   4.392 -0.4136  0.9886  0.4539
 2932WAT     H2 9008   1.151   4.632   4.400 -0.7978  1.7441 -2.7590
 2933WAT      O 9009   1.509   1.986   4.520  0.4358 -0.6008 -0.2212
 2933WAT     H1 9010   1.458   1.966   4.441 -1.7727  1.9938  0.3725
 2933WAT     H2 9011   1.470   1.932   4.588  0.2404 -0.5533 -0.2946
 2934WAT      O 9012   4.631   4.529   4.744 -0.5127 -0.0410  0.7588
 2934WAT     H1 9013   4.605   4.529   4.836  0.8234 -0.7673  1.1702
 2934WAT     H2 9014   4.698   4.461   4.738 -0.4465  0.1193 -0.7177
 2935WAT      O 9015   1.855   1.758   0.446 -0.1913 -0.5537 -0.6189
 2935WAT     H1 9016   1.871   1.673   0.487  0.1945 -0.3723 -0.3903
 2935WAT     H2 9017   1.786   1.741   0.382 -0.1859 -1.0179 -0.5048
 2936WAT      O 9018   1.549   3.976   5.468 -0.0040  0.5923  0.4128
 2936WAT     H1 9019   1.614   4.039   5.434  1.4524 -0.8948  0.2893
 2936WAT     H2 9020   1.602   3.905   5.504 -1.5935 -0.3405  0.9902
 2937WAT      O 9021   0.323   1.158   3.953  0.0454 -0.1612 -0.2441
 2937WAT     H1 9022   0.325   1.143   3.858 -0.1958 -1.0674 -0.1171
 2937WAT     H2 9023   0.265   1.232   3.965 -2.0261 -1.6326 -0.6377
 2938WAT      O 9024   0.521   0.633   2.947  0.2506 -0.8972  0.3724
 2938WAT     H1 9025   0.523   0.648   3.042 -0.4812 -0.3006  0.3047
 2938WAT     H2 9026   0.599   0.580   2.929  1.3385  0.4115  1.0567
 2939WAT      O 9027   2.010   4.353   4.818  0.1703 -0.7015  0.4985
 2939WAT     H1 9028   1.931   4.314   4.783 -1.7768  3.8072 -0.8049
 2939WAT     H2 9029   2.080   4.322   4.761 -1.4402 -1.1225 -1.3398
 2940WAT      O 9030   3.771   4.163   3.130  0.0331  0.3492  0.1858
 2940WAT     H1 9031   3.865   4.145   3.142 -0.3337 -0.5477  2.0438
 2940WAT     H2 9032   3.767   4.212   3.048  2.0156 -0.5471 -0.5282
 2941WAT      O 9033   2.603   4.941   2.769 -0.5167  0.1496 -0.0680
 2941WAT     H1 9034   2.589   4.877   2.699 -0.6553  2.2383 -2.0467
 2941WAT     H2 9035   2.697   4.937   2.787 -0.4784 -0.4005 -0.3742
 2942WAT      O 9036   2.382   0.518   1.607  0.2685  1.0862 -1.0195
 2942WAT     H1 9037   2.381   0.489   1.516 -0.0325  1.2346 -1.0649
 2942WAT     H2 9038   2.349   0.608   1.604 -1.3923  0.5382 -0.5774
 2943WAT      O 9039   2.060   4.166   3.258 -0.1468  0.4720 -0.0876
 2943WAT     H1 9040   2.075   4.221   3.181  1.2494 -0.2197 -0.3346
 2943WAT     H2 9041   2.146   4.133   3.282 -0.7307 -0.3259  1.0354
 2944WAT      O 9042   0.781   5.545   3.456 -0.1499  0.1339  0.0635
 2944WAT     H1 9043   0.807   5.559   3.547  0.1963 -0.7117  0.1065
 2944WAT     H2 9044   0.828   5.613   3.407  0.5799 -0.1388  0.3788
 2945WAT      O 9045   3.385   5.018   5.809 -0.7172 -0.0113  0.0738
 2945WAT     H1 9046   3.384   4.951   5.877 -0.3911 -1.0604 -0.9262
 2945WAT     H2 9047   3.381   4.969   5.727  0.6617  1.1349 -0.7224
 2946WAT      O 9048   2.867   4.638   1.071  0.0747 -0.1376 -0.3020
 2946WAT     H1 9049   2.787   4.633   1.019 -0.7964 -2.8855  1.0843
 2946WAT     H2 9050   2.926   4.573   1.032  1.2754  1.0977 -0.6473
 2947WAT      O 9051   1.244   0.822   4.659 -0.0130  0.2100  0.7414
 2947WAT     H1 9052   1.237   0.778   4.574 -0.3739  0.3682  0.6856
 2947WAT     H2 9053   1.254   0.750   4.721  0.2843  0.0951  0.5615
 2948WAT      O 9054   4.332   4.371   2.764 -0.1980  0.4156 -0.0204
 2948WAT     H1 9055   4.351   4.300   2.824 -1.1346 -1.0413 -1.3664
 2948WAT     H2 9056   4.309   4.328   2.682 -1.1104  2.2561 -0.8008
 2949WAT      O 9057   0.252   0.498   4.354 -0.0279  0.0180  0.4512
 2949WAT     H1 9058   0.244   0.582   4.399  0.4806 -0.3685  1.2855
 2949WAT     H2 9059   0.220   0.433   4.416  0.2439 -0.4816  0.0829
 2950WAT      O 9060   4.688   4.798   4.690 -0.2716  0.2538 -0.2942
 2950WAT     H1 9061   4.782   4.813   4.698 -0.2472  0.2073 -0.4933
 2950WAT     H2 9062   4.679   4.702   4.688 -0.2703  0.2618 -0.8850
 2951WAT      O 9063   3.287   1.612   4.451  0.1451 -0.3536 -0.1617
 2951WAT     H1 9064   3.350   1.662   4.502  1.5996  0.7875 -2.8544
 2951WAT     H2 9065   3.315   1.521   4.459  1.4780  0.0167 -0.3810
 2952WAT      O 9066   4.112   4.590   2.086 -0.2423  0.1703  0.9892
 2952WAT     H1 9067   4.024   4.628   2.087  0.2750  1.4139  1.1582
 2952WAT     H2 9068   4.170   4.666   2.082  0.7947 -0.6359 -2.6467
 2953WAT      O 9069   2.227   4.231   3.971 -0.1302  0.3222  0.4018
 2953WAT     H1 9070   2.240   4.270   4.057 -0.3799  1.9852 -0.2708
 2953WAT     H2 9071   2.176   4.296   3.922  0.2057 -0.4720 -1.0860
 2954WAT      O 9072   4.280   3.578   3.242  0.2582 -0.6609 -0.2425
 2954WAT     H1 9073   4.288   3.552   3.334  1.7751 -0.0784 -0.1701
 2954WAT     H2 9074   4.349   3.528   3.198  0.0938 -0.3047 -0.9185
 2955WAT      O 9075   1.736   1.314   3.303  0.2126 -0.6161  0.1003
 2955WAT     H1 9076   1.782   1.289   3.382  0.4661 -1.2612 -0.2414
 2955WAT     H2 9077   1.644   1.293   3.321 -0.0848  1.2757  1.0234
 2956WAT      O 9078   4.842   2.848   3.523  0.0849  0.4300  0.3942
 2956WAT     H1 9079   4.893   2.928   3.535  2.3400 -0.8279 -0.1983
 2956WAT     H2 9080   4.847   2.831   3.428 -0.5068 -0.3164  0.4861
 2957WAT      O 9081   1.025   1.629   2.953 -0.6578 -0.0946  0.1654
 2957WAT     H1 9082   1.100   1.570   2.964 -1.1317 -1.0526 -1.3064
 2957WAT     H2 9083   1.064   1.716   2.944  0.2429 -0.4844  0.1381
 2958WAT      O 9084   4.711   4.295   2.735  0.1554 -0.0321  0.7548
 2958WAT     H1 9085   4.739   4.237   2.806  1.3573  0.4665  0.7089
 2958WAT     H2 9086   4.783   4.358   2.726 -0.1003  0.0816 -0.7199
 2959WAT      O 9087   4.806   0.395   2.441  0.3534 -0.0930 -0.3477
 2959WAT     H1 9088   4.873   0.401   2.372  1.2612 -0.6744  0.4497
 2959WAT     H2 9089   4.804   0.302   2.464  0.5121  0.1760  0.8177
 2960WAT      O 9090   3.903   0.164   3.887 -0.1837  0.4489  0.2643
 2960WAT     H1 9091   3.948   0.081   3.895 -0.5219  0.2581  0.2252
 2960WAT     H2 9092   3.812   0.140   3.869 -0.8954  0.7540  3.0460
 2961WAT      O 9093   0.660   0.043   4.512  0.5774  0.5829  0.2305
 2961WAT     H1 9094   0.596   0.014   4.448 -0.5909  0.7340  1.3070
 2961WAT     H2 9095   0.709  -0.037   4.535 -0.4757  0.0866  0.7911
 2962WAT      O 9096   0.140   2.344   4.321 -0.0360 -0.1400  0.7688
 2962WAT     H1 9097   0.077   2.283   4.358 -1.2297 -0.4272 -1.5438
 2962WAT     H2 9098   0.087   2.406   4.270  1.4258  0.4258 -0.1503
 2963WAT      O 9099   1.115   4.019   0.041 -0.0010 -0.1564  0.0988
 2963WAT     H1 9100   1.060   4.089   0.006  1.0039 -0.0215 -1.2923
 2963WAT     H2 9101   1.160   4.059   0.116 -1.0771  0.0006  0.6754
 2964WAT      O 9102   0.862   4.478   4.453 -0.2829  0.1704 -0.3043
 2964WAT     H1 9103   0.773   4.501   4.426 -0.5171 -0.1089  0.2138
 2964WAT     H2 9104   0.851   4.444   4.541  0.1574 -1.1837 -0.7601
 2965WAT      O 9105   2.207   0.902   4.255  0.3653 -0.2296 -0.3610
 2965WAT     H1 9106   2.155   0.855   4.321 -0.2659  3.2475  1.9056
 2965WAT     H2 9107   2.286   0.849   4.245 -1.0555 -2.6924  0.4851
 2966WAT      O 9108   2.747   4.585   5.761 -0.3147 -0.0713  0.6406
 2966WAT     H1 9109   2.809   4.619   5.697  0.4806  0.7210  1.7925
 2966WAT     H2 9110   2.698   4.518   5.713  0.3488  0.3837 -0.7388
 2967WAT      O 9111   4.380   5.056   2.814 -1.2029  0.1825  0.1827
 2967WAT     H1 9112   4.304   5.050   2.757 -1.8393 -0.7668  1.0962
 2967WAT     H2 9113   4.433   4.980   2.791 -0.9645  0.3582  0.1520
 2968WAT      O 9114   1.959   0.520   0.544  0.0334  0.1200 -0.1559
 2968WAT     H1 9115   2.026   0.564   0.595 -0.1625  1.3272 -0.8876
 2968WAT     H2 9116   1.896   0.589   0.522 -0.6229 -0.6541 -0.8011
 2969WAT      O 9117   1.626   3.682   2.833  0.0707  0.3112  0.3022
 2969WAT     H1 9118   1.647   3.762   2.880  0.8964 -0.7254  1.7848
 2969WAT     H2 9119   1.540   3.657   2.865 -0.0170  0.3953  0.1327
 2970WAT      O 9120   3.843   4.331   4.175  0.0038  0.2978 -0.3755
 2970WAT     H1 9121   3.830   4.366   4.087 -0.5282  1.7282  0.2318
 2970WAT     H2 9122   3.938   4.323   4.184  0.0564 -0.0152 -1.1251
 2971WAT      O 9123   3.764   1.045   2.462 -0.4366 -0.5035  0.6602
 2971WAT     H1 9124   3.733   1.086   2.543 -2.7544 -0.3384 -0.2568
 2971WAT     H2 9125   3.812   0.968   2.492  0.8361  0.8170  2.2629
 2972WAT      O 9126   0.961   4.687   1.493  0.3978  0.6592  0.0138
 2972WAT     H1 9127   0.948   4.727   1.407 -0.3153  1.1063  0.3183
 2972WAT     H2 9128   0.890   4.723   1.547  1.3498  1.0744  1.0291
 2973WAT      O 9129   4.173   3.663   5.302 -0.6440  0.5454  0.4256
 2973WAT     H1 9130   4.135   3.622   5.379 -2.2526  1.4467  0.1590
 2973WAT     H2 9131   4.133   3.617   5.228 -0.2507  0.6765  0.1252
 2974WAT      O 9132   3.637   4.486   3.865 -0.1346 -0.4576 -0.1706
 2974WAT     H1 9133   3.546   4.488   3.892  0.0303 -2.2946  0.6686
 2974WAT     H2 9134   3.635   4.452   3.776 -0.3802  1.6782 -1.0452
 2975WAT      O 9135   0.296   4.362   2.156  0.8112  0.0484  0.2422
 2975WAT     H1 9136   0.216   4.340   2.109  0.1474 -0.9019  1.7296
 2975WAT     H2 9137   0.267   4.412   2.232  1.9235  2.1607 -0.6360
 2976WAT      O 9138   0.364   4.865   2.576 -0.0895 -0.5125 -0.0848
 2976WAT     H1 9139   0.374   4.929   2.506  0.6630 -0.2911  0.2087
 2976WAT     H2 9140   0.424   4.895   2.645  1.5691 -2.4216 -0.5926
 2977WAT      O 9141   0.317   0.698   4.552 -0.1381 -0.5189 -0.1615
 2977WAT     H1 9142   0.399   0.740   4.578 -0.3971 -0.5400  0.7223
 2977WAT     H2 9143   0.249   0.749   4.594 -0.5163 -1.2161  0.0982
 2978WAT      O 9144   1.947   5.105   1.460 -0.6395  0.2406  0.3607
 2978WAT     H1 9145   1.887   5.138   1.527  1.1206  1.5427  1.3563
 2978WAT     H2 9146   1.964   5.180   1.404  1.1592  0.3134  0.9481
 2979WAT      O 9147   3.660   4.311   3.358  0.8633 -0.5004  0.3363
 2979WAT     H1 9148   3.717   4.385   3.336 -0.1846  0.0913 -0.5107
 2979WAT     H2 9149   3.684   4.243   3.294  1.2333 -0.5750  0.5560
 2980WAT      O 9150   0.632   4.412   2.482 -0.4499  0.0651 -0.4854
 2980WAT     H1 9151   0.553   4.389   2.532  0.0341  0.6693  0.5734
 2980WAT     H2 9152   0.621   4.505   2.462  1.0846  0.8320  1.8046
 2981WAT      O 9153   0.475   5.197   3.477  0.0908  0.0990  0.3932
 2981WAT     H1 9154   0.501   5.121   3.530  0.1266 -0.1996 -0.0437
 2981WAT     H2 9155   0.399   5.166   3.427  0.7568 -0.0024 -0.5909
 2982WAT      O 9156   0.241   4.148   4.910 -0.7438  0.2684  0.7122
 2982WAT     H1 9157   0.170   4.083   4.913  0.2892 -0.9038  0.8642
 2982WAT     H2 9158   0.319   4.096   4.893  0.0174  1.5962 -0.0122
 2983WAT      O 9159   4.296   5.168   4.992  0.6444  0.0609  0.0478
 2983WAT     H1 9160   4.286   5.235   5.059 -2.0180 -1.0070  0.8443
 2983WAT     H2 9161   4.344   5.097   5.036  0.6234  0.1397  0.1970
 2984WAT      O 9162   0.397   5.205   1.916 -0.1704 -0.3782 -0.6303
 2984WAT     H1 9163   0.311   5.226   1.878 -0.3397  0.0624 -0.0086
 2984WAT     H2 9164   0.427   5.130   1.865 -1.3491 -1.1488 -0.2411
 2985WAT      O 9165   3.493   4.717   4.873  0.4291  0.2199  0.2282
 2985WAT     H1 9166   3.435   4.792   4.886 -0.2382 -0.4259  1.1070
 2985WAT     H2 9167   3.575   4.742   4.916 -0.6381 -0.5289  2.9640
 2986WAT      O 9168   3.363   4.363   2.176 -0.3419 -0.1779 -0.0138
 2986WAT     H1 9169   3.431   4.397   2.234 -0.4828  0.0609  0.0119
 2986WAT     H2 9170   3.287   4.419   2.192  0.0432  0.8426 -1.4878
 2987WAT      O 9171   4.486   3.999   3.545 -0.7498  0.2552 -0.3505
 2987WAT     H1 9172   4.579   4.022   3.535 -0.2864 -1.3239 -0.0101
 2987WAT     H2 9173   4.472   3.997   3.640 -0.9007 -0.3405 -0.3817
 2988WAT      O 9174   2.417   0.301   4.920 -0.0139  0.2224 -0.2795
 2988WAT     H1 9175   2.477   0.322   4.849  0.7282  0.4194  0.3920
 2988WAT     H2 9176   2.389   0.211   4.902  1.3838 -0.2969  0.0181
 2989WAT      O 9177   1.350   2.897   2.605  0.0236  0.0273 -0.4434
 2989WAT     H1 9178   1.412   2.968   2.585  0.2255 -0.6527 -2.5310
 2989WAT     H2 9179   1.382   2.823   2.554 -1.0126 -1.1516  0.5599
 2990WAT      O 9180   2.447   4.287   2.997 -0.0170  0.0608  0.3472
 2990WAT     H1 9181   2.420   4.196   3.000  1.9675 -0.5419  1.1408
 2990WAT     H2 9182   2.383   4.329   2.939 -1.0292 -1.7789  0.0680
 2991WAT      O 9183   1.510   4.348   0.996  0.0505  0.2974  0.0091
 2991WAT     H1 9184   1.576   4.289   0.959 -0.8620 -0.5693 -0.2697
 2991WAT     H2 9185   1.480   4.400   0.922  0.4892  0.7731  0.1584
 2992WAT      O 9186   3.845   4.622   3.555  0.0520 -0.2243 -0.4122
 2992WAT     H1 9187   3.850   4.571   3.636  0.7559  0.4658 -0.0125
 2992WAT     H2 9188   3.765   4.674   3.564  1.6064  2.0744  1.2080
 2993WAT      O 9189   2.418   1.637   4.707 -0.6589 -0.3651  0.1224
 2993WAT     H1 9190   2.500   1.619   4.753  0.0944 -0.2669 -1.1360
 2993WAT     H2 9191   2.420   1.578   4.631 -0.7548  1.1067 -1.0710
 2994WAT      O 9192   1.185   3.929   3.261  0.1888  0.1543 -0.1274
 2994WAT     H1 9193   1.253   3.884   3.211 -0.6543 -1.7016  0.3439
 2994WAT     H2 9194   1.147   3.992   3.199  2.3170  1.2900 -0.3869
 2995WAT      O 9195   1.776   1.392   4.234  0.1746 -0.2718 -0.5979
 2995WAT     H1 9196   1.763   1.400   4.140  0.3173 -0.0472 -0.6007
 2995WAT     H2 9197   1.864   1.354   4.243 -0.1817 -1.1116 -0.5693
 2996WAT      O 9198   2.410   2.567   3.651 -0.0694  0.0299 -0.2965
 2996WAT     H1 9199   2.487   2.519   3.680  0.3148 -0.1154 -1.4876
 2996WAT     H2 9200   2.348   2.499   3.623  0.7815  0.1772 -2.7422
 2997WAT      O 9201   0.938   4.780   3.718 -0.2936  0.6679  0.1421
 2997WAT     H1 9202   0.989   4.714   3.670 -0.0961  0.0889  1.1271
 2997WAT     H2 9203   0.993   4.859   3.714 -0.3705  0.6911 -0.7421
 2998WAT      O 9204   2.021   4.537   1.281 -0.1988  0.7290  0.0835
 2998WAT     H1 9205   1.972   4.540   1.199 -0.0319  1.5124  0.0054
 2998WAT     H2 9206   2.008   4.624   1.321 -1.7947 -0.2129  1.7906
 2999WAT      O 9207   2.103   4.624   2.051 -0.3380 -0.4270  0.0633
 2999WAT     H1 9208   2.030   4.668   2.008 -1.7880 -2.7571 -0.0472
 2999WAT     H2 9209   2.161   4.695   2.079 -2.4348  1.4930 -0.1777
 3000WAT      O 9210   1.282   5.555   1.284  0.9917 -0.1328 -0.0775
 3000WAT     H1 9211   1.368   5.573   1.245  0.1289  2.2961 -1.0674
 3000WAT     H2 9212   1.284   5.603   1.367  0.4343  0.3804 -0.3546
 3001WAT      O 9213   4.272   3.722   4.756  0.0872 -0.0072  0.5395
 3001WAT     H1 9214   4.198   3.783   4.752  0.4683  0.4133 -2.0210
 3001WAT     H2 9215   4.343   3.771   4.797 -0.4445  0.2684  1.1438
 3002WAT      O 9216   3.481   0.252   5.742 -0.5565  0.0035 -0.0048
 3002WAT     H1 9217   3.409   0.291   5.793  0.7716  1.4654  0.8627
 3002WAT     H2 9218   3.481   0.160   5.768 -1.5172  0.1825  0.7091
 3003WAT      O 9219   1.876   5.253   2.813  0.0035  0.1531  0.0485
 3003WAT     H1 9220   1.965   5.281   2.834  0.5014 -0.4720 -1.1063
 3003WAT     H2 9221   1.853   5.304   2.735 -0.1073 -0.6863 -0.4790
 3004WAT      O 9222   2.789   4.805   3.755 -0.6353  0.4095  0.4565
 3004WAT     H1 9223   2.709   4.755   3.742  0.4108 -1.5562  1.2318
 3004WAT     H2 9224   2.827   4.812   3.667 -0.6280 -0.4690  0.3833
 3005WAT      O 9225   3.266   0.125   1.567 -0.2891  0.2576  0.4275
 3005WAT     H1 9226   3.255   0.220   1.554 -0.2159  0.2435  0.2553
 3005WAT     H2 9227   3.332   0.100   1.502  0.7012  0.3275  1.3741
 3006WAT      O 9228   4.107   4.328   4.207  0.1659  0.2440  0.2076
 3006WAT     H1 9229   4.164   4.252   4.191  0.9927  0.9798 -0.4312
 3006WAT     H2 9230   4.136   4.362   4.292  0.1964  0.1893  0.2193
 3007WAT      O 9231   1.370   4.991   3.303  0.1925  0.2615  0.2216
 3007WAT     H1 9232   1.386   4.937   3.381 -0.6399 -0.5010 -0.1231
 3007WAT     H2 9233   1.453   4.988   3.255  1.1918  1.8383  1.6878
 3008WAT      O 9234   1.398   4.873   2.496  0.0131  0.3538  0.1654
 3008WAT     H1 9235   1.407   4.781   2.473  0.1008  0.4585 -0.2259
 3008WAT     H2 9236   1.478   4.894   2.544  0.5114  0.5042 -0.6987
 3009WAT      O 9237   4.796   5.432   3.907 -0.2481 -0.2228  0.7869
 3009WAT     H1 9238   4.851   5.453   3.832 -0.2890 -0.8382  0.5792
 3009WAT     H2 9239   4.707   5.429   3.872 -0.0874 -2.5012  0.3958
 3010WAT      O 9240   4.112   0.951   4.192  0.3850  0.4009 -0.3562
 3010WAT     H1 9241   4.121   0.856   4.190  0.0244  0.2815  1.5858
 3010WAT     H2 9242   4.143   0.980   4.106  1.0305 -1.4110 -0.7826
 3011WAT      O 9243   0.784   4.839   1.641 -0.0549 -0.0530  0.3267
 3011WAT     H1 9244   0.694   4.871   1.642 -0.1318 -0.2605  0.1610
 3011WAT     H2 9245   0.836   4.913   1.674 -0.3001  0.0125  0.5721
 3012WAT      O 9246   0.670   4.668   4.835 -0.1703  0.1854  0.5419
 3012WAT     H1 9247   0.702   4.740   4.890 -1.7152  0.7886  0.7037
 3012WAT     H2 9248   0.593   4.636   4.882 -0.2747 -0.6944 -0.2183
 3013WAT      O 9249   2.373   4.430   5.578 -0.0635  0.4317  0.4177
 3013WAT     H1 9250   2.381   4.497   5.510 -0.9768  0.7845  0.6417
 3013WAT     H2 9251   2.281   4.403   5.574 -0.1504  0.5065  1.5482
 3014WAT      O 9252   1.656   3.494   3.299  0.1251 -0.0784 -0.1214
 3014WAT     H1 9253   1.629   3.402   3.305  2.2263 -0.7652 -0.6131
 3014WAT     H2 9254   1.734   3.493   3.244 -0.1121  2.0935 -0.5770
 3015WAT      O 9255   0.186   5.020   2.798  0.2244  0.3724 -0.5201
 3015WAT     H1 9256   0.213   4.943   2.748  1.7257  1.2374 -1.1088
 3015WAT     H2 9257   0.236   5.092   2.760 -0.8004  1.5788  0.3157
 3016WAT      O 9258   4.717   5.416   3.464  0.0632  0.7731 -0.0043
 3016WAT     H1 9259   4.694   5.483   3.529  0.8130  0.6768  0.3718
 3016WAT     H2 9260   4.708   5.333   3.511  2.7670  0.7854  0.7273
 3017WAT      O 9261   1.404   3.193   5.428 -0.3327  0.5049  0.5459
 3017WAT     H1 9262   1.450   3.260   5.479 -1.7371  1.2436  0.8891
 3017WAT     H2 9263   1.315   3.226   5.421 -0.4914 -0.2069 -1.3050
 3018WAT      O 9264   1.184   4.859   4.783  0.2144  0.7014 -0.5211
 3018WAT     H1 9265   1.120   4.803   4.738 -0.2510  0.3395  0.5510
 3018WAT     H2 9266   1.269   4.828   4.753 -0.0141 -0.9268  0.3958
 3019WAT      O 9267   1.738   3.932   1.275  0.0858  0.0988  0.7458
 3019WAT     H1 9268   1.806   3.981   1.229  0.9387 -0.6248  1.2095
 3019WAT     H2 9269   1.661   3.989   1.272  1.2468  1.8355  1.9540
 3020WAT      O 9270   3.576   0.236   3.692  0.2965  0.1183  0.7339
 3020WAT     H1 9271   3.554   0.146   3.667  1.7514 -0.1685  0.3943
 3020WAT     H2 9272   3.667   0.247   3.665  0.3210  1.5157  1.2897
 3021WAT      O 9273   0.371   0.029   4.924 -0.5611  0.0699  1.0385
 3021WAT     H1 9274   0.388   0.037   5.018  1.0136  1.2486  0.6983
 3021WAT     H2 9275   0.455   0.049   4.883 -0.9354 -1.4759 -0.6124
 3022WAT      O 9276   4.806   5.503   4.563  0.1228  0.4857  0.4041
 3022WAT     H1 9277   4.799   5.548   4.478 -0.4541 -0.3932 -0.0332
 3022WAT     H2 9278   4.798   5.573   4.627 -2.2706  0.9229 -0.2366
 3023WAT      O 9279   3.318   4.534   2.834 -0.5067  0.0100  0.0618
 3023WAT     H1 9280   3.391   4.501   2.887  0.8753  0.2398 -1.6243
 3023WAT     H2 9281   3.281   4.456   2.794  0.5288  0.1087 -1.1524
 3024WAT      O 9282   2.058   3.893   3.628  0.0745 -0.0360  0.2037
 3024WAT     H1 9283   2.035   3.915   3.538 -0.3332  0.4262  0.4121
 3024WAT     H2 9284   2.154   3.893   3.629  0.1001 -1.6596 -0.5974
 3025WAT      O 9285   0.798   5.186   3.145  0.0536  0.1255  0.1133
 3025WAT     H1 9286   0.812   5.229   3.229 -2.0004 -0.5968  0.8960
 3025WAT     H2 9287   0.710   5.214   3.118  0.2354 -0.5130 -1.2676
 3026WAT      O 9288   4.075   4.757   3.848  0.2811  0.5232  0.1202
 3026WAT     H1 9289   4.100   4.757   3.755  0.9158 -1.1649  0.2537
 3026WAT     H2 9290   3.985   4.722   3.848  0.6718 -0.5278  0.1954
 3027WAT      O 9291   3.395   1.307   4.299  0.0545 -0.2628 -0.3954
 3027WAT     H1 9292   3.429   1.220   4.280  0.8625  0.2911 -1.6298
 3027WAT     H2 9293   3.454   1.341   4.366 -1.0548 -1.1286  1.0784
 3028WAT      O 9294   2.188   2.703   1.421 -0.3764 -0.8486 -0.0555
 3028WAT     H1 9295   2.180   2.762   1.345  1.3655  0.6506  0.8521
 3028WAT     H2 9296   2.099   2.670   1.434 -1.4998  1.7182 -0.5193
 3029WAT      O 9297   0.422   3.927   5.187  0.0199  0.2841  0.0925
 3029WAT     H1 9298   0.352   3.894   5.243 -0.3826  1.3722  0.2567
 3029WAT     H2 9299   0.449   4.009   5.229 -1.1122  1.7772 -1.9277
 3030WAT      O 9300   2.908   5.402   3.219  0.4316  0.5778  0.2697
 3030WAT     H1 9301   2.849   5.450   3.160 -1.3117  1.1923  2.3905
 3030WAT     H2 9302   2.893   5.310   3.198 -0.0128  0.7900 -0.3737
 3031WAT      O 9303   3.006   4.352   4.657  0.0634 -0.2869  0.0899
 3031WAT     H1 9304   3.089   4.324   4.620 -0.8302 -2.5554 -0.4032
 3031WAT     H2 9305   2.986   4.435   4.613  1.0213 -0.8124 -1.3915
 3032WAT      O 9306   2.015   3.982   4.441 -0.1030 -0.1377  0.1766
 3032WAT     H1 9307   2.048   4.050   4.499  0.1108  0.3000 -0.4447
 3032WAT     H2 9308   2.014   4.023   4.354 -0.7442 -0.6684 -0.0746
 3033WAT      O 9309   2.665   4.365   1.344  0.1415 -0.0457  0.8698
 3033WAT     H1 9310   2.720   4.298   1.303  0.0045 -1.1916  2.4636
 3033WAT     H2 9311   2.576   4.345   1.314  0.0234 -0.9608  1.7514
 3034WAT      O 9312   0.263   4.120   4.526  0.1990  0.5659 -0.6491
 3034WAT     H1 9313   0.274   4.093   4.434  0.3043 -2.2502  0.0997
 3034WAT     H2 9314   0.332   4.185   4.540  3.1678 -2.0875 -1.5015
 3035WAT      O 9315   1.653   0.653   2.332 -0.1158 -0.3474  0.1414
 3035WAT     H1 9316   1.712   0.649   2.408 -0.1026  0.0333  0.1500
 3035WAT     H2 9317   1.629   0.745   2.325  0.9788 -0.1272 -1.1592
 3036WAT      O 9318   1.469   1.264   3.322 -0.5941  0.6005 -0.6165
 3036WAT     H1 9319   1.402   1.243   3.257  0.2651 -2.2854 -0.6834
 3036WAT     H2 9320   1.421   1.273   3.404 -1.6351  3.8426 -1.4142
 3037WAT      O 9321   4.180   1.395   2.185  0.1804  0.0837 -0.1614
 3037WAT     H1 9322   4.096   1.420   2.224  0.2147 -0.7944  0.5005
 3037WAT     H2 9323   4.210   1.321   2.238  0.9240 -0.2146 -0.9776
 3038WAT      O 9324   4.570   3.195   3.803  0.5199  0.4921 -0.1033
 3038WAT     H1 9325   4.592   3.104   3.787  0.9114  0.2311  1.7104
 3038WAT     H2 9326   4.475   3.200   3.789  0.3347 -0.4336  0.7478
 3039WAT      O 9327   3.861   0.808   2.044 -0.1428  0.0102 -0.1772
 3039WAT     H1 9328   3.945   0.765   2.028  0.4259  0.8920  0.3240
 3039WAT     H2 9329   3.797   0.754   1.999  0.7469 -0.4839 -0.8784
 3040WAT      O 9330   1.731   4.391   1.555  0.6709  0.0929 -0.6347
 3040WAT     H1 9331   1.706   4.358   1.641 -0.1546  0.5548 -0.6830
 3040WAT     H2 9332   1.671   4.347   1.494  0.5999  0.4896 -0.8597
 3041WAT      O 9333   2.527   4.847   3.337  0.3566 -0.3538 -0.1419
 3041WAT     H1 9334   2.442   4.881   3.363 -0.3158 -0.0177 -2.6254
 3041WAT     H2 9335   2.585   4.923   3.339  0.7883 -0.6563  1.9547
 3042WAT      O 9336   1.079   3.889   1.144 -0.7147  0.4223  0.6498
 3042WAT     H1 9337   1.018   3.828   1.186 -2.5095  1.2145 -0.6799
 3042WAT     H2 9338   1.044   3.975   1.165  1.1461  1.0147  1.5414
 3043WAT      O 9339   1.165   2.551   4.239  0.3201 -0.0160 -0.0582
 3043WAT     H1 9340   1.188   2.644   4.250  1.6804 -0.0171 -2.1935
 3043WAT     H2 9341   1.248   2.505   4.252  0.1801 -0.6837 -1.3809
 3044WAT      O 9342   1.976   4.590   3.492 -0.0816  0.0048  0.0278
 3044WAT     H1 9343   1.925   4.621   3.417 -0.2559  2.6518  1.1283
 3044WAT     H2 9344   2.037   4.662   3.510  1.3895 -1.4568  1.1525
 3045WAT      O 9345   4.064   1.096   2.329 -0.2010 -0.0093 -0.2293
 3045WAT     H1 9346   3.992   1.089   2.392 -0.3123  1.0433 -0.2258
 3045WAT     H2 9347   4.080   1.190   2.322  1.2235 -0.2312 -0.1772
 3046WAT      O 9348   2.164   2.099   0.919  0.3407 -0.1541 -0.6074
 3046WAT     H1 9349   2.071   2.121   0.908  0.0936 -1.6446 -2.0523
 3046WAT     H2 9350   2.211   2.172   0.879 -0.0820  1.5365  1.8042
 3047WAT      O 9351   1.681   2.401   2.397  0.1343 -0.0688  0.7079
 3047WAT     H1 9352   1.731   2.407   2.478  0.3388  0.6917  0.5330
 3047WAT     H2 9353   1.700   2.483   2.350 -2.5603  1.0444  1.3768
 3048WAT      O 9354   0.736   2.004   4.534  0.1169 -0.2639 -0.1089
 3048WAT     H1 9355   0.656   2.047   4.505 -0.5350 -0.9960  0.5688
 3048WAT     H2 9356   0.766   1.955   4.457 -0.0661  0.0298 -0.3698
 3049WAT      O 9357   4.495   4.869   3.712 -0.5971 -0.0775  0.2211
 3049WAT     H1 9358   4.444   4.792   3.736 -0.0366 -0.7306 -0.5835
 3049WAT     H2 9359   4.500   4.921   3.792 -1.3239 -0.6861  0.6759
 3050WAT      O 9360   3.554   4.466   4.716 -0.0393 -0.4136 -0.3641
 3050WAT     H1 9361   3.579   4.424   4.799 -0.2910 -0.9922 -0.5731
 3050WAT     H2 9362   3.537   4.557   4.739  1.1590 -0.2524 -0.0052
 3051WAT      O 9363   3.374   4.268   1.920 -0.0591  0.2241 -0.7954
 3051WAT     H1 9364   3.438   4.197   1.923 -1.0164 -0.6540 -0.7354
 3051WAT     H2 9365   3.398   4.325   1.994  1.1093  0.3324 -1.2378
 3052WAT      O 9366   2.101   5.345   0.798 -0.3047 -0.0392 -0.0234
 3052WAT     H1 9367   2.019   5.302   0.824 -0.5539  0.6163  0.2907
 3052WAT     H2 9368   2.149   5.354   0.880  0.1710 -0.5920 -0.2351
 3053WAT      O 9369   2.489   4.205   5.016 -0.2296  0.4185 -0.5221
 3053WAT     H1 9370   2.418   4.148   5.045  0.4593 -0.2971 -0.2386
 3053WAT     H2 9371   2.458   4.239   4.932 -1.3597  0.9440  0.0755
 3054WAT      O 9372   0.928   5.103   1.591 -0.0820 -0.1307 -0.4767
 3054WAT     H1 9373   0.944   5.035   1.526  0.7100 -0.3997 -0.0237
 3054WAT     H2 9374   0.929   5.185   1.542 -0.3149 -0.3943 -0.9226
 3055WAT      O 9375   0.330   2.982   3.939  0.7674 -0.1416 -0.2470
 3055WAT     H1 9376   0.325   2.887   3.948  0.6063 -0.0894  0.2517
 3055WAT     H2 9377   0.392   2.997   3.867  0.8548 -0.6180 -0.2708
 3056WAT      O 9378   3.857   2.516   4.700 -0.3167  0.2908 -0.5394
 3056WAT     H1 9379   3.775   2.557   4.726  0.5003  2.2074 -0.8461
 3056WAT     H2 9380   3.925   2.577   4.729  1.0920 -1.6059  0.4327
 3057WAT      O 9381   2.538   4.444   3.676  0.2751  0.0354  0.4359
 3057WAT     H1 9382   2.509   4.519   3.727  0.7549 -0.2448  1.1270
 3057WAT     H2 9383   2.496   4.456   3.590 -2.5320 -0.7224  1.5768
 3058WAT      O 9384   2.148   2.079   1.944  0.4288  0.7140 -0.1652
 3058WAT     H1 9385   2.055   2.067   1.966  0.5253  0.2268 -0.0127
 3058WAT     H2 9386   2.177   2.150   2.002 -0.1221  1.6397 -0.9970
 3059WAT      O 9387   3.111   5.331   3.699  0.9077 -0.3196  0.1108
 3059WAT     H1 9388   3.071   5.346   3.614  0.4348 -3.5903 -0.3444
 3059WAT     H2 9389   3.053   5.376   3.761  0.6947  1.2184 -1.1437
 3060WAT      O 9390   4.891   0.168   3.401 -0.4191 -0.1942  0.0083
 3060WAT     H1 9391   4.930   0.203   3.321 -0.7318  0.5729  0.1840
 3060WAT     H2 9392   4.890   0.073   3.388 -0.4853 -0.0743 -0.8997
 3061WAT      O 9393   2.041   5.316   1.292  0.0886 -0.4638 -0.3719
 3061WAT     H1 9394   2.050   5.375   1.366  0.7735 -0.1886 -0.6687
 3061WAT     H2 9395   2.022   5.373   1.217 -0.8357 -0.7559 -0.3808
 3062WAT      O 9396   2.291   3.047   3.818  0.5183  0.3040  0.4288
 3062WAT     H1 9397   2.309   2.965   3.773 -0.0405  0.5613 -0.2947
 3062WAT     H2 9398   2.211   3.030   3.867  0.5587  0.3270  0.5017
 3063WAT      O 9399   2.032   4.186   5.089 -0.3133 -0.1235  0.0120
 3063WAT     H1 9400   2.088   4.196   5.012 -0.3541 -2.1273 -0.3208
 3063WAT     H2 9401   1.962   4.127   5.061 -0.3053 -0.9504  1.5997
 3064WAT      O 9402   4.335   4.173   4.136 -0.2472 -0.2958 -0.6045
 3064WAT     H1 9403   4.391   4.239   4.094  0.0879  0.6942  1.2537
 3064WAT     H2 9404   4.387   4.143   4.211 -0.0828 -3.3109 -1.8184
 3065WAT      O 9405   2.204   4.556   0.853  0.2698 -0.1580 -0.0844
 3065WAT     H1 9406   2.256   4.606   0.916  1.4934 -0.8564 -0.5108
 3065WAT     H2 9407   2.214   4.465   0.880 -0.5218 -0.3208 -0.3320
 3066WAT      O 9408   1.123   4.812   1.770 -0.7251 -0.6376  0.2319
 3066WAT     H1 9409   1.150   4.822   1.679  0.4160 -1.3042  0.4749
 3066WAT     H2 9410   1.179   4.874   1.818 -2.4407  0.9306  0.3439
 3067WAT      O 9411   4.579   4.995   2.300 -0.1208 -0.0821 -0.0273
 3067WAT     H1 9412   4.525   5.067   2.334  1.0718  0.3340  1.0833
 3067WAT     H2 9413   4.620   4.957   2.378 -0.3405 -1.6744 -0.6530
 3068WAT      O 9414   1.259   4.704   1.199 -0.1075 -0.1049 -0.5902
 3068WAT     H1 9415   1.329   4.644   1.174 -0.0528 -0.0400 -0.5914
 3068WAT     H2 9416   1.250   4.693   1.293  0.0482  0.0438 -0.5580
 3069WAT      O 9417   0.932   3.437   2.236  0.6998  0.1207 -0.3488
 3069WAT     H1 9418   0.862   3.499   2.216  1.0462  0.3001 -1.0678
 3069WAT     H2 9419   0.915   3.408   2.325  0.0751  0.6446 -0.2942
 3070WAT      O 9420   1.447   2.223   1.986  0.0187 -0.1670  0.2343
 3070WAT     H1 9421   1.445   2.199   1.894  0.0684 -0.6595  0.3599
 3070WAT     H2 9422   1.414   2.146   2.032 -1.2456  0.5226  0.5447
 3071WAT      O 9423   2.013   2.814   1.802 -0.2835  0.3198  0.0923
 3071WAT     H1 9424   1.965   2.843   1.724 -1.6756 -0.9875  0.4000
 3071WAT     H2 9425   2.092   2.772   1.768 -0.6929  0.0940 -0.5974
 3072WAT      O 9426   2.020   4.801   0.459 -0.3775  0.2828 -0.5281
 3072WAT     H1 9427   2.084   4.738   0.494 -0.9227 -0.3767 -0.7090
 3072WAT     H2 9428   1.937   4.754   0.460 -0.7434  0.9107 -0.9290
 3073WAT      O 9429   1.565   0.220   1.480  0.1226 -0.8802  0.1621
 3073WAT     H1 9430   1.526   0.286   1.538  2.3260  1.9641 -1.3858
 3073WAT     H2 9431   1.514   0.226   1.399  1.8798  0.8951 -0.8917
 3074WAT      O 9432   1.633   4.165   4.047 -0.1974  0.9570  0.1997
 3074WAT     H1 9433   1.588   4.248   4.034  0.5235  1.2260 -0.6459
 3074WAT     H2 9434   1.575   4.115   4.105 -0.1073  2.4558  1.6398
 3075WAT      O 9435   3.612   2.561   5.345 -0.2014  0.0697 -0.5009
 3075WAT     H1 9436   3.561   2.573   5.425 -1.2655  2.4623 -1.4312
 3075WAT     H2 9437   3.636   2.468   5.345  0.4403  0.1035  2.8908
 3076WAT      O 9438   1.458   1.382   1.500  0.8263 -0.5789 -0.2499
 3076WAT     H1 9439   1.465   1.371   1.595 -1.0858 -2.3293 -0.2466
 3076WAT     H2 9440   1.419   1.300   1.469  1.3469 -0.0234 -2.5547
 3077WAT      O 9441   1.525   0.398   2.388 -0.0636  0.2400 -0.0942
 3077WAT     H1 9442   1.574   0.474   2.356  0.0056 -0.5088 -1.8422
 3077WAT     H2 9443   1.467   0.434   2.455 -1.3670  2.1772 -2.1453
 3078WAT      O 9444   2.744   3.492   2.992 -0.5556 -0.0862  0.2059
 3078WAT     H1 9445   2.716   3.432   2.924  0.2706  1.5095 -1.6475
 3078WAT     H2 9446   2.790   3.562   2.945  1.1780  0.4516  2.5188
 3079WAT      O 9447   1.566   4.673   1.073  0.1102 -0.8192 -0.6491
 3079WAT     H1 9448   1.543   4.735   1.142  0.0894 -0.3362 -1.0877
 3079WAT     H2 9449   1.659   4.655   1.085  0.5056  0.5503 -1.5057
 3080WAT      O 9450   1.178   5.364   1.897  0.0272 -0.1587 -0.5607
 3080WAT     H1 9451   1.240   5.360   1.971 -1.2899 -0.3754  0.5727
 3080WAT     H2 9452   1.157   5.457   1.889  1.0640  0.0137 -1.4569
 3081WAT      O 9453   1.878   5.645   0.233 -0.2160  0.1376 -0.2917
 3081WAT     H1 9454   1.969   5.635   0.262  0.3301  0.8082 -1.6934
 3081WAT     H2 9455   1.843   5.556   0.234 -0.0145  0.0376  1.6435
 3082WAT      O 9456   2.011   0.739   2.642 -0.2921  0.1708  0.6450
 3082WAT     H1 9457   2.098   0.780   2.644 -0.1051 -0.1754 -0.2370
 3082WAT     H2 9458   1.967   0.779   2.567  0.1204 -1.6599 -0.6453
 3083WAT      O 9459   0.246   3.885   5.472 -0.3223  0.2413  0.2781
 3083WAT     H1 9460   0.246   3.800   5.427  4.0771 -1.2808  2.5477
 3083WAT     H2 9461   0.208   3.867   5.558 -1.7635  1.2900 -0.1085
 3084WAT      O 9462   0.142   5.246   2.224  0.3637  0.4259 -0.2334
 3084WAT     H1 9463   0.146   5.159   2.184 -1.6483 -1.0276  2.4689
 3084WAT     H2 9464   0.057   5.281   2.197 -1.2259 -0.7566  2.8382
 3085WAT      O 9465   1.606   3.620   0.397  0.2018  0.0190 -0.0929
 3085WAT     H1 9466   1.538   3.562   0.364 -0.4916 -0.1817  1.6289
 3085WAT     H2 9467   1.684   3.565   0.406  0.4086  0.0781 -1.3270
 3086WAT      O 9468   1.839   5.463   2.641 -0.7660  0.0073  0.2047
 3086WAT     H1 9469   1.897   5.539   2.643 -1.2290  0.3470  0.7780
 3086WAT     H2 9470   1.755   5.497   2.610 -0.5625 -0.5684 -1.0673
 3087WAT      O 9471   0.029   2.379   2.550  0.0685  0.6375  0.2915
 3087WAT     H1 9472   0.074   2.460   2.524  0.4656  0.4776  0.4803
 3087WAT     H2 9473  -0.057   2.409   2.581 -0.3886  0.8530 -1.0814
 3088WAT      O 9474   1.769   5.057   3.880  0.0395  0.1557  0.3013
 3088WAT     H1 9475   1.691   5.018   3.839  1.5905 -1.3864 -1.3777
 3088WAT     H2 9476   1.762   5.150   3.861  0.1592 -0.3539 -2.7603
 3089WAT      O 9477   2.282   3.301   3.736  0.2042  0.2241 -0.1841
 3089WAT     H1 9478   2.280   3.218   3.783 -0.6215  0.0979 -0.4110
 3089WAT     H2 9479   2.320   3.279   3.650  0.9894  0.3013  0.1387
 3090WAT      O 9480   0.567   1.537   2.837  0.5340 -0.0440  0.6093
 3090WAT     H1 9481   0.474   1.512   2.845  1.0436 -1.8213  1.5412
 3090WAT     H2 9482   0.614   1.454   2.844  2.2233  0.8649  0.3818
 3091WAT      O 9483   1.655   0.581   5.101 -1.0035 -0.2740  0.3827
 3091WAT     H1 9484   1.605   0.525   5.161 -1.5628 -1.6275 -1.2675
 3091WAT     H2 9485   1.698   0.519   5.042  0.1325  0.9967 -0.1509
 3092WAT      O 9486   4.844   2.341   3.730  0.2609  0.3638 -0.2584
 3092WAT     H1 9487   4.854   2.417   3.787  0.1737  1.7120 -1.9577
 3092WAT     H2 9488   4.864   2.374   3.643 -2.4065 -0.8905 -1.4503
 3093WAT      O 9489   4.546   2.804   2.357  0.3838 -0.0443 -0.2289
 3093WAT     H1 9490   4.606   2.777   2.426  0.6455 -1.6291 -1.0117
 3093WAT     H2 9491   4.468   2.750   2.370  0.9016 -1.2814 -1.8317
 3094WAT      O 9492   1.040   3.768   0.877  0.5136  0.0537  0.0921
 3094WAT     H1 9493   1.043   3.678   0.846  0.1123 -0.1892  0.7436
 3094WAT     H2 9494   1.101   3.770   0.950  0.3825  0.2683  0.1954
 3095WAT      O 9495   4.112   3.239   2.458 -0.5206 -0.2510 -0.2983
 3095WAT     H1 9496   4.038   3.179   2.467  0.4153 -1.3895  0.1788
 3095WAT     H2 9497   4.117   3.284   2.542 -0.7605 -0.0487 -0.3899
 3096WAT      O 9498   3.968   3.485   2.107  0.2646  0.0066 -0.1060
 3096WAT     H1 9499   3.996   3.502   2.018 -0.7993 -0.0797 -0.4721
 3096WAT     H2 9500   3.973   3.570   2.151  1.1991 -0.0331 -0.1139
 3097WAT      O 9501   0.324   4.457   2.798  0.3347  0.1303  0.3555
 3097WAT     H1 9502   0.417   4.476   2.787  0.2100  0.4806 -0.1572
 3097WAT     H2 9503   0.292   4.439   2.709  0.3630 -2.2071  0.7494
 3098WAT      O 9504   0.117   2.642   3.420  0.4069  0.0755 -0.1213
 3098WAT     H1 9505   0.188   2.707   3.425  0.3999  0.0249  0.7647
 3098WAT     H2 9506   0.053   2.681   3.361  0.9834  0.3061 -0.6032
 3099WAT      O 9507   3.225   0.221   0.020 -0.0451  0.4541 -0.1987
 3099WAT     H1 9508   3.137   0.203   0.053 -0.4633 -0.4764 -1.7052
 3099WAT     H2 9509   3.250   0.140  -0.026  1.3692  0.9080 -0.2812
 3100WAT      O 9510   1.388   1.853   4.317  0.5537  0.0824  0.3215
 3100WAT     H1 9511   1.396   1.757   4.317  0.5260  0.0465 -1.8843
 3100WAT     H2 9512   1.383   1.877   4.225  1.2132  2.2860  0.8064
 3101WAT      O 9513   0.316   4.036   3.042 -0.1690  0.1866  0.2603
 3101WAT     H1 9514   0.234   3.987   3.035  0.2173 -0.4766  0.2602
 3101WAT     H2 9515   0.323   4.085   2.961 -0.2351 -0.2889 -0.0354
 3102WAT      O 9516   0.777   1.645   3.613  0.1073 -0.4460 -0.5455
 3102WAT     H1 9517   0.735   1.587   3.677 -0.8179 -1.7920 -2.2793
 3102WAT     H2 9518   0.740   1.731   3.631 -0.9305 -1.0031  0.0753
 3103WAT      O 9519   2.737   1.119   3.543 -0.4068  0.2048 -0.1491
 3103WAT     H1 9520   2.744   1.203   3.497 -2.4042  0.1172 -0.7037
 3103WAT     H2 9521   2.673   1.136   3.613  0.6166 -0.3735  0.9711
 3104WAT      O 9522   2.264   5.142   2.165  0.2053  0.0130 -0.2603
 3104WAT     H1 9523   2.197   5.209   2.151  0.1318  0.2843  1.2320
 3104WAT     H2 9524   2.338   5.172   2.114  0.1051  1.1550  0.2283
 3105WAT      O 9525   2.328   5.349   0.302  0.0230  0.0501  0.6323
 3105WAT     H1 9526   2.275   5.288   0.353 -0.3610  0.6107  0.9222
 3105WAT     H2 9527   2.336   5.309   0.216 -1.3625  0.2079  0.4033
 3106WAT      O 9528   3.835   3.781   1.705 -0.1517  0.0586  0.5642
 3106WAT     H1 9529   3.891   3.848   1.666  0.3350 -0.6835 -0.0630
 3106WAT     H2 9530   3.815   3.814   1.792  0.4817  0.7905  0.4455
 3107WAT      O 9531   1.862   0.548   4.427 -0.6072 -0.3093  0.3920
 3107WAT     H1 9532   1.912   0.480   4.473  0.0087 -0.0001  0.1850
 3107WAT     H2 9533   1.785   0.562   4.483 -0.2728 -0.5123  0.9160
 3108WAT      O 9534   4.230   3.447   4.803  0.1891 -0.1468  0.2616
 3108WAT     H1 9535   4.228   3.542   4.795 -0.9092 -0.2811 -1.9736
 3108WAT     H2 9536   4.314   3.421   4.763  0.8651 -0.0932  1.6145
 3109WAT      O 9537   2.904   0.061   1.706 -0.1405  0.2816  0.2037
 3109WAT     H1 9538   2.924   0.124   1.637  1.7240 -0.7441 -0.2520
 3109WAT     H2 9539   2.926   0.106   1.787 -0.2617  0.7284 -0.0098
 3110WAT      O 9540   2.267   4.540   4.522 -0.2760 -0.0070 -0.1356
 3110WAT     H1 9541   2.285   4.484   4.446  0.0753 -0.0902  0.0091
 3110WAT     H2 9542   2.171   4.542   4.527 -0.2923 -0.8852  0.0729
 3111WAT      O 9543   3.270   0.390   1.577 -0.3312  0.3053 -0.1627
 3111WAT     H1 9544   3.314   0.428   1.501  1.0651 -1.1944 -0.1631
 3111WAT     H2 9545   3.282   0.455   1.646 -0.2034  0.9810 -0.8086
 3112WAT      O 9546   3.070   4.455   0.214  0.1325 -0.0513 -0.7404
 3112WAT     H1 9547   3.104   4.369   0.235  1.7832  0.2186 -2.0178
 3112WAT     H2 9548   3.142   4.515   0.233 -0.7923  0.9947 -0.3893
 3113WAT      O 9549   0.969   5.553   4.691  0.3863 -0.1076  0.1907
 3113WAT     H1 9550   0.907   5.520   4.626  0.6182 -0.6196  0.2245
 3113WAT     H2 9551   0.914   5.581   4.764  0.2037 -0.9237  0.3811
 3114WAT      O 9552   3.238   5.283   4.280  0.0809 -0.3241 -0.2619
 3114WAT     H1 9553   3.180   5.223   4.328 -0.1737  0.9237  1.0762
 3114WAT     H2 9554   3.275   5.339   4.348  1.6004 -0.0287 -1.2927
 3115WAT      O 9555   2.898   4.015   0.945 -0.0798 -0.0285  0.1356
 3115WAT     H1 9556   2.913   4.075   0.872  2.8510  0.7903  1.2944
 3115WAT     H2 9557   2.965   3.948   0.935 -2.1935 -2.2271 -0.1096
 3116WAT      O 9558   1.896   0.611   3.328  0.6282  0.3492  0.6040
 3116WAT     H1 9559   1.904   0.698   3.290 -1.2563  0.5383  0.5841
 3116WAT     H2 9560   1.806   0.606   3.360  1.0762 -1.1311  1.7651
 3117WAT      O 9561   1.766   4.997   0.243  0.6808  0.6346 -0.2613
 3117WAT     H1 9562   1.685   4.946   0.246  1.1184 -0.0997 -0.7197
 3117WAT     H2 9563   1.835   4.932   0.228  1.2993  1.3093 -0.3864
 3118WAT      O 9564   1.886   2.162   5.037 -0.3331  0.1896 -0.2013
 3118WAT     H1 9565   1.920   2.238   4.989  1.5854 -0.9358 -0.7221
 3118WAT     H2 9566   1.814   2.130   4.984  0.4601  0.1787 -1.3087
 3119WAT      O 9567   4.881   4.648   4.460  0.2384 -0.3446  0.1644
 3119WAT     H1 9568   4.888   4.552   4.467 -1.7816 -0.5157  0.2953
 3119WAT     H2 9569   4.790   4.663   4.434  0.5555  1.5561  0.0635
 3120WAT      O 9570   0.774   4.015   1.936 -0.1696 -0.1600 -0.3070
 3120WAT     H1 9571   0.821   3.941   1.899 -0.9079 -1.3538  1.0254
 3120WAT     H2 9572   0.828   4.091   1.916  1.0816 -1.1833 -0.9039
 3121WAT      O 9573   2.417   3.307   3.475 -0.0942  0.2977 -0.3372
 3121WAT     H1 9574   2.421   3.343   3.386 -3.2202 -0.5992 -0.9707
 3121WAT     H2 9575   2.359   3.231   3.467  0.4584 -0.4881  2.2948
 3122WAT      O 9576   3.369   4.838   2.089  0.3879 -0.4583  0.3675
 3122WAT     H1 9577   3.438   4.900   2.113 -0.4282  0.5015  0.2714
 3122WAT     H2 9578   3.337   4.804   2.173  0.5870 -0.4697  0.4385
 3123WAT      O 9579   1.412   5.181   3.638  0.6835  0.3561 -0.0210
 3123WAT     H1 9580   1.454   5.104   3.676 -0.7379 -0.7650 -0.6161
 3123WAT     H2 9581   1.482   5.227   3.592  1.2173 -1.7820 -1.5144
 3124WAT      O 9582   2.722   1.600   0.992  0.0130 -0.6809 -0.1234
 3124WAT     H1 9583   2.726   1.677   0.935  0.3839 -0.0950  0.6827
 3124WAT     H2 9584   2.727   1.526   0.931 -0.0463 -0.0767 -0.8893
 3125WAT      O 9585   2.408   4.016   3.029  0.0942  0.3417  0.7437
 3125WAT     H1 9586   2.404   4.029   3.124  0.8330 -0.9698  0.9701
 3125WAT     H2 9587   2.470   3.945   3.016 -1.2814 -0.6980 -0.6162
 3126WAT      O 9588   4.157   4.504   3.989 -0.1564 -0.2122 -0.1682
 3126WAT     H1 9589   4.174   4.445   4.063  1.0146  2.5431  1.9419
 3126WAT     H2 9590   4.062   4.503   3.980 -0.3024 -0.9582  1.0927
 3127WAT      O 9591   1.769   1.371   1.518  0.3413 -0.2156  0.6357
 3127WAT     H1 9592   1.676   1.394   1.513  0.3742  0.2653  1.9010
 3127WAT     H2 9593   1.810   1.426   1.451 -0.4021 -1.1978 -0.6691
 3128WAT      O 9594   4.085   3.930   4.804 -0.1293 -0.2883 -1.0794
 3128WAT     H1 9595   4.008   3.900   4.756 -1.0283  2.0768 -1.2632
 3128WAT     H2 9596   4.051   3.953   4.891  0.0059  2.1038 -1.5922
 3129WAT      O 9597   0.860   0.046   4.985  0.0146  0.0507 -0.2134
 3129WAT     H1 9598   0.890   0.131   4.953  0.3663 -0.0460 -0.1413
 3129WAT     H2 9599   0.912   0.030   5.064 -1.0466  0.4159  0.5751
 3130WAT      O 9600   4.217   1.526   4.259 -0.8661 -0.5968 -0.0127
 3130WAT     H1 9601   4.122   1.510   4.259 -1.2413  1.1813 -1.6020
 3130WAT     H2 9602   4.255   1.439   4.245 -2.3378 -1.1698 -0.7716
 3131WAT      O 9603   1.874   2.887   0.153 -0.0838  0.4652 -0.4451
 3131WAT     H1 9604   1.942   2.831   0.114  2.3870  1.8751  1.5714
 3131WAT     H2 9605   1.865   2.959   0.091 -1.0690 -0.5856 -1.5701
 3132WAT      O 9606   2.737   4.493   0.453 -0.2840 -0.4790  0.1822
 3132WAT     H1 9607   2.650   4.533   0.445 -0.2526 -0.7134 -2.3950
 3132WAT     H2 9608   2.779   4.510   0.368  1.8026 -1.2650  0.9921
 3133WAT      O 9609   1.557   4.837   0.220 -0.5101 -0.3862 -0.7835
 3133WAT     H1 9610   1.559   4.767   0.155  1.6821 -2.5525  1.4031
 3133WAT     H2 9611   1.513   4.800   0.296  1.8686 -0.0150  0.9202
 3134WAT      O 9612   1.847   1.184   5.782 -0.3387 -0.1350  0.1869
 3134WAT     H1 9613   1.894   1.111   5.741  0.3789 -1.4761  3.1105
 3134WAT     H2 9614   1.879   1.262   5.737  1.2916 -1.3681 -0.9142
 3135WAT      O 9615   2.251   4.798   3.668 -0.2620 -0.0583  0.0172
 3135WAT     H1 9616   2.301   4.831   3.593 -1.0966 -0.2034 -0.6190
 3135WAT     H2 9617   2.189   4.868   3.688  0.0337  0.0241  0.6497
 3136WAT      O 9618   4.780   3.025   3.072 -0.0733  0.1534  0.2909
 3136WAT     H1 9619   4.752   3.109   3.110 -1.5107 -1.2193  2.5238
 3136WAT     H2 9620   4.706   2.966   3.086  1.7055 -2.1042  0.9749
 3137WAT      O 9621   1.342   1.847   1.058  0.0134 -0.5967  0.1604
 3137WAT     H1 9622   1.434   1.865   1.037  0.5657 -0.9513  2.0597
 3137WAT     H2 9623   1.310   1.793   0.986  1.0336  0.2502 -0.9540
 3138WAT      O 9624   0.793   0.630   5.067 -0.0558  0.1784  0.1812
 3138WAT     H1 9625   0.716   0.597   5.112  0.0060 -0.0103  0.1489
 3138WAT     H2 9626   0.816   0.561   5.005  0.3922  0.0504  0.4849
 3139WAT      O 9627   4.039   3.060   2.158 -0.5120  0.2370 -0.3229
 3139WAT     H1 9628   3.962   3.118   2.163  0.2486  1.4292 -1.6771
 3139WAT     H2 9629   4.106   3.105   2.209 -0.3510 -0.1914 -0.1568
 3140WAT      O 9630   1.438   3.932   0.953 -0.1835 -0.0924  0.1375
 3140WAT     H1 9631   1.512   3.945   0.892  0.1079  2.6440  0.9164
 3140WAT     H2 9632   1.361   3.934   0.896  0.2247 -0.8624 -0.4676
 3141WAT      O 9633   4.422   0.453   4.907  0.2583  0.1706 -0.0061
 3141WAT     H1 9634   4.376   0.480   4.827  0.3799  0.1068 -0.0981
 3141WAT     H2 9635   4.373   0.377   4.938  1.1808 -0.8289 -0.9300
 3142WAT      O 9636   2.050   0.214   0.944 -0.2679 -0.0507 -0.1420
 3142WAT     H1 9637   1.955   0.210   0.933 -0.1268 -1.7178 -1.1555
 3142WAT     H2 9638   2.076   0.123   0.958  1.1393  0.4349  0.6025
 3143WAT      O 9639   2.916   3.553   0.729 -0.0770 -0.6572 -0.0899
 3143WAT     H1 9640   2.828   3.518   0.715 -0.8633  0.7369  1.1397
 3143WAT     H2 9641   2.915   3.586   0.819  1.1216  0.9803 -0.6325
 3144WAT      O 9642   1.973   3.935   3.365 -0.3398 -0.1509 -0.1707
 3144WAT     H1 9643   1.993   4.017   3.321 -2.1168  0.2949 -0.2440
 3144WAT     H2 9644   1.987   3.868   3.299 -0.8050  0.3046 -0.7425
 3145WAT      O 9645   4.428   4.883   3.115  0.2195  0.4429  0.2555
 3145WAT     H1 9646   4.401   4.873   3.206  0.3433  0.8464  0.3376
 3145WAT     H2 9647   4.507   4.937   3.119  1.0799 -0.7350  0.0257
 3146WAT      O 9648   2.914   4.389   4.930  0.0094 -0.0956 -0.4896
 3146WAT     H1 9649   2.979   4.382   4.860 -0.6851  1.0591 -1.2848
 3146WAT     H2 9650   2.834   4.418   4.886 -1.3304 -2.3504  0.3226
 3147WAT      O 9651   2.070   3.999   5.740  0.2511  0.5720  0.4140
 3147WAT     H1 9652   2.138   4.067   5.741  1.7050 -0.8033  0.0550
 3147WAT     H2 9653   2.104   3.931   5.798 -0.5931 -0.3715 -0.1682
 3148WAT      O 9654   3.417   0.845   5.380  0.2500  0.3624 -0.5607
 3148WAT     H1 9655   3.445   0.764   5.336  2.4142  0.5894  0.3082
 3148WAT     H2 9656   3.432   0.828   5.473 -0.9384  1.1699 -0.1954
 3149WAT      O 9657   2.671   4.503   4.858  0.2148  0.3957 -0.1585
 3149WAT     H1 9658   2.638   4.588   4.832 -1.4007 -0.6079 -1.5670
 3149WAT     H2 9659   2.606   4.470   4.920  1.4628  0.6542  1.3556
 3150WAT      O 9660   2.540   2.647   0.459 -0.0982  0.2240 -0.0677
 3150WAT     H1 9661   2.529   2.553   0.450  0.1110  0.0183  1.5191
 3150WAT     H2 9662   2.469   2.674   0.517 -1.1682  1.3428 -1.7908
 3151WAT      O 9663   0.662   4.933   3.015 -0.5838  0.0727 -0.3313
 3151WAT     H1 9664   0.707   4.999   3.068 -0.5325 -0.0310 -0.2473
 3151WAT     H2 9665   0.706   4.937   2.930 -0.6626  0.2350 -0.3653
 3152WAT      O 9666   4.282   4.380   3.671  0.2066 -0.0293 -0.2137
 3152WAT     H1 9667   4.267   4.401   3.579  1.4590 -0.2870 -0.5016
 3152WAT     H2 9668   4.275   4.285   3.676  2.5372 -0.2848 -0.5784
 3153WAT      O 9669   0.961   4.221   1.838  0.0368  0.3919 -0.5149
 3153WAT     H1 9670   1.029   4.282   1.866 -0.4889  0.5851  0.4174
 3153WAT     H2 9671   0.886   4.277   1.818 -0.7654  0.0500  1.2775
 3154WAT      O 9672   1.466   5.450   5.374  0.0366  0.2818  0.5299
 3154WAT     H1 9673   1.540   5.389   5.373 -0.6450 -0.5725  0.4627
 3154WAT     H2 9674   1.396   5.401   5.417 -0.4968  1.0649  0.5635
 3155WAT      O 9675   3.391   3.321   0.772  0.0636  0.1078 -0.9377
 3155WAT     H1 9676   3.301   3.292   0.785  0.5512 -1.8041 -1.5283
 3155WAT     H2 9677   3.427   3.260   0.708  2.8479 -1.5112  1.8980
 3156WAT      O 9678   0.393   4.234   3.227 -0.2404  0.8393 -0.3904
 3156WAT     H1 9679   0.479   4.203   3.255 -0.6847  0.3073  0.4451
 3156WAT     H2 9680   0.365   4.169   3.162 -0.8511 -0.1621  0.8162
 3157WAT      O 9681   2.642   3.726   4.079 -0.5957 -0.0083  0.3456
 3157WAT     H1 9682   2.574   3.792   4.085  0.9745  1.5917  1.8781
 3157WAT     H2 9683   2.653   3.695   4.169 -0.3539 -1.3896 -0.1323
 3158WAT      O 9684   2.123   4.366   3.090  0.5289  0.3732 -0.7792
 3158WAT     H1 9685   2.187   4.359   3.019  1.0648  0.2459 -0.2977
 3158WAT     H2 9686   2.170   4.412   3.160 -0.4589  1.8673 -1.0428
 3159WAT      O 9687   0.513   4.588   4.631 -0.0056 -0.2264 -0.7947
 3159WAT     H1 9688   0.554   4.613   4.549 -1.1798 -0.7012 -1.5533
 3159WAT     H2 9689   0.579   4.607   4.698  1.2644 -0.5446 -1.9089
 3160WAT      O 9690   2.381   3.858   4.583 -0.2468 -0.1394  0.2930
 3160WAT     H1 9691   2.310   3.827   4.527 -0.5090  0.8529  0.0542
 3160WAT     H2 9692   2.423   3.927   4.532 -1.0800  1.4589  1.6578
 3161WAT      O 9693   3.603   2.398   2.680 -0.1019  0.1701 -0.0343
 3161WAT     H1 9694   3.695   2.398   2.651  0.2928 -3.1028  0.8639
 3161WAT     H2 9695   3.607   2.427   2.771  0.1305 -0.6103  0.2051
 3162WAT      O 9696   1.487   3.846   0.235 -0.1035  0.1544 -0.3556
 3162WAT     H1 9697   1.575   3.842   0.198 -0.8471 -2.3303 -2.1358
 3162WAT     H2 9698   1.497   3.819   0.326  0.8293 -1.7284 -0.9705
 3163WAT      O 9699   0.996   4.382   2.212 -0.0204 -0.5646 -0.2734
 3163WAT     H1 9700   0.952   4.352   2.291  0.8743 -1.3872 -0.0571
 3163WAT     H2 9701   0.926   4.396   2.149 -0.6339 -1.2868  0.2286
 3164WAT      O 9702   2.230   3.405   0.955  0.4875  0.5114  0.2758
 3164WAT     H1 9703   2.212   3.498   0.950  0.3052  0.4376 -0.6608
 3164WAT     H2 9704   2.211   3.381   1.046 -0.3368  1.2020  0.2904
 3165WAT      O 9705   1.123   4.533   2.833  0.4112  0.3000 -0.1176
 3165WAT     H1 9706   1.193   4.484   2.791 -2.0985 -1.6122 -2.4410
 3165WAT     H2 9707   1.102   4.603   2.771 -2.5774 -1.8755 -1.8466
 3166WAT      O 9708   0.022   4.959   3.540 -0.4161  0.2660  0.7423
 3166WAT     H1 9709  -0.068   4.935   3.561 -1.3297  0.8449 -2.0701
 3166WAT     H2 9710   0.049   5.016   3.612 -1.1671 -2.2174  3.1736
 3167WAT      O 9711   1.581   3.238   3.277  0.5160 -0.1306 -0.1476
 3167WAT     H1 9712   1.509   3.186   3.311  0.5681  0.3405  0.7410
 3167WAT     H2 9713   1.612   3.191   3.200 -0.0059 -0.9289  0.1229
 3168WAT      O 9714   1.435   4.473   1.233 -0.2752  0.4536 -0.1799
 3168WAT     H1 9715   1.468   4.429   1.155 -1.0610  1.0258 -0.8643
 3168WAT     H2 9716   1.512   4.514   1.272  0.5383 -1.7487  0.6689
 3169WAT      O 9717   4.009   3.449   3.388  0.4457  0.1829 -0.2677
 3169WAT     H1 9718   3.983   3.437   3.297 -0.2111  0.4070 -0.1151
 3169WAT     H2 9719   4.017   3.544   3.399  0.8190  0.1432 -0.1669
 3170WAT      O 9720   1.546   1.403   2.231 -0.0182  0.0807 -0.0138
 3170WAT     H1 9721   1.621   1.391   2.174 -0.8191  0.2176 -1.1398
 3170WAT     H2 9722   1.515   1.314   2.249  0.4191  0.0247  0.4598
 3171WAT      O 9723   0.502   3.929   4.674  0.1991  0.3163 -0.5049
 3171WAT     H1 9724   0.523   3.850   4.723 -2.4197 -0.5941 -0.6797
 3171WAT     H2 9725   0.466   3.989   4.739  1.7921  1.2598 -0.4440
 3172WAT      O 9726   4.664   3.353   2.742  0.3803  0.4500  0.3891
 3172WAT     H1 9727   4.681   3.397   2.659  1.3381  0.5705  0.6354
 3172WAT     H2 9728   4.644   3.263   2.717  3.1195 -0.1839  0.1049
 3173WAT      O 9729   4.794   4.312   4.829 -0.0681  0.1773 -0.5445
 3173WAT     H1 9730   4.774   4.236   4.774  0.0098 -0.6448  0.5240
 3173WAT     H2 9731   4.752   4.292   4.914 -0.5954  1.6253 -0.4340
 3174WAT      O 9732   1.488   0.211   3.480  0.1655 -0.1062  0.1525
 3174WAT     H1 9733   1.411   0.174   3.522 -0.0242  0.6263  0.4617
 3174WAT     H2 9734   1.458   0.295   3.444  0.6341 -0.1512 -0.3652
 3175WAT      O 9735   1.687   3.083   5.431 -0.4873  0.1161 -0.3254
 3175WAT     H1 9736   1.748   3.132   5.377 -1.2332  1.1915 -0.2430
 3175WAT     H2 9737   1.611   3.141   5.440 -0.3014  0.1172  2.0665
 3176WAT      O 9738   4.152   2.855   1.786 -0.4205 -0.1586  0.1166
 3176WAT     H1 9739   4.220   2.859   1.854 -0.7088 -0.1329  0.4070
 3176WAT     H2 9740   4.199   2.873   1.705 -0.1371  0.1989  0.3521
 3177WAT      O 9741   0.898   3.145   3.370 -0.1160 -0.4458 -0.2659
 3177WAT     H1 9742   0.862   3.112   3.452 -0.2346 -0.3092 -0.2629
 3177WAT     H2 9743   0.829   3.202   3.334  0.1439 -0.0792 -0.1934
 3178WAT      O 9744   3.236   0.698   5.073  0.0294 -0.0374 -0.0059
 3178WAT     H1 9745   3.177   0.708   5.148  0.3018  0.3401  0.1591
 3178WAT     H2 9746   3.232   0.782   5.029 -1.5394 -0.8083 -1.4681
 3179WAT      O 9747   0.595   0.906   2.269 -0.3190 -0.1460 -0.2120
 3179WAT     H1 9748   0.610   0.857   2.188  0.6585  0.9626 -0.7371
 3179WAT     H2 9749   0.640   0.854   2.336  1.7766  0.5693 -0.9583
 3180WAT      O 9750   1.261   0.880   3.430  0.4594  0.5281 -0.2995
 3180WAT     H1 9751   1.287   0.792   3.458  0.3526  0.3458 -0.7720
 3180WAT     H2 9752   1.332   0.909   3.373  0.2733  0.5688 -0.5098
 3181WAT      O 9753   0.851   0.257   1.967 -0.3951 -0.2946  0.5512
 3181WAT     H1 9754   0.911   0.328   1.945 -1.1864 -0.3202 -1.9441
 3181WAT     H2 9755   0.907   0.192   2.011  0.7392  0.9457  1.0350
 3182WAT      O 9756   3.510   4.901   4.560 -0.0054  0.0369  0.0642
 3182WAT     H1 9757   3.464   4.953   4.625 -0.4808  1.0150 -1.0166
 3182WAT     H2 9758   3.591   4.874   4.603  0.1696  1.5357  0.7135
 3183WAT      O 9759   3.593   2.696   4.548 -0.6092  0.1712 -0.1623
 3183WAT     H1 9760   3.559   2.783   4.526 -2.2556 -0.8481 -1.9088
 3183WAT     H2 9761   3.688   2.709   4.554 -0.8553  2.1951  0.2119
 3184WAT      O 9762   4.846   3.597   3.953 -0.1959  0.2038  0.2176
 3184WAT     H1 9763   4.784   3.576   3.883 -0.7616  0.1565  0.7289
 3184WAT     H2 9764   4.886   3.512   3.974  0.6575  0.3642 -0.6760
 3185WAT      O 9765   3.656   3.366   4.477  0.4405  0.6995 -0.4417
 3185WAT     H1 9766   3.660   3.434   4.411 -0.3095  1.0262 -0.1561
 3185WAT     H2 9767   3.570   3.325   4.465 -0.1041  1.3675  0.9003
 3186WAT      O 9768   1.904   1.657   1.589 -0.0658  0.0586 -0.3280
 3186WAT     H1 9769   1.824   1.708   1.590 -0.6466 -0.7964 -1.2313
 3186WAT     H2 9770   1.968   1.711   1.636 -1.2599  0.5786  0.7498
 3187WAT      O 9771   4.817   0.843   4.699 -0.6403  0.3447 -0.5109
 3187WAT     H1 9772   4.830   0.934   4.725  0.0442  0.0161  0.3635
 3187WAT     H2 9773   4.738   0.844   4.646 -1.2643  1.2812  0.3982
 3188WAT      O 9774   4.031   4.487   2.429 -0.6684 -0.3753  0.1849
 3188WAT     H1 9775   4.024   4.581   2.446  1.2159 -0.4540  1.7826
 3188WAT     H2 9776   3.988   4.445   2.503 -0.4349 -0.7537  0.1092
 3189WAT      O 9777   0.321   2.245   3.624  0.5708 -0.1339 -0.0190
 3189WAT     H1 9778   0.300   2.169   3.679  1.1023 -0.4365 -0.2286
 3189WAT     H2 9779   0.412   2.231   3.598 -0.1491 -0.8830 -2.3821
 3190WAT      O 9780   4.923   2.778   4.781  0.2259 -0.0299 -0.1818
 3190WAT     H1 9781   5.007   2.824   4.785 -0.1550  0.7262 -0.6178
 3190WAT     H2 9782   4.916   2.750   4.689  1.7368 -3.4926  0.5804
 3191WAT      O 9783   3.700   3.285   3.848  0.3570 -0.1656 -0.3321
 3191WAT     H1 9784   3.648   3.281   3.928 -0.5967 -0.8782 -0.9558
 3191WAT     H2 9785   3.739   3.372   3.848 -0.9891  0.4572  0.0753
 3192WAT      O 9786   1.339   5.353   2.448 -0.0389  0.3528  0.2890
 3192WAT     H1 9787   1.395   5.419   2.408  0.0837  0.3404  0.4352
 3192WAT     H2 9788   1.385   5.270   2.431 -0.2955  0.2818 -0.0718
 3193WAT      O 9789   1.321   0.237   2.612 -0.5690 -1.0648  0.0183
 3193WAT     H1 9790   1.293   0.215   2.523 -1.2887 -0.9757  0.2152
 3193WAT     H2 9791   1.323   0.153   2.658 -3.3844 -0.8101  0.7899
 3194WAT      O 9792   1.275   4.708   0.314 -0.0251 -0.2120  0.1022
 3194WAT     H1 9793   1.274   4.794   0.356  0.4637  0.2430 -0.7976
 3194WAT     H2 9794   1.250   4.726   0.223  2.3452 -0.6607 -0.7072
 3195WAT      O 9795   0.962   3.925   3.618  0.1855  0.6068 -0.2364
 3195WAT     H1 9796   1.055   3.905   3.606 -0.1765 -1.5936  0.2486
 3195WAT     H2 9797   0.955   3.951   3.709  0.5502  2.4779 -0.6982
 3196WAT      O 9798   0.671   0.554   3.353  0.8801 -0.2358  0.2414
 3196WAT     H1 9799   0.654   0.483   3.416 -0.6454  0.8378  1.1139
 3196WAT     H2 9800   0.751   0.595   3.384  0.3533  0.0336  1.2930
 3197WAT      O 9801   4.759   3.419   4.338 -0.4667 -0.3341  0.6633
 3197WAT     H1 9802   4.738   3.413   4.431 -0.2841 -0.0177  0.7260
 3197WAT     H2 9803   4.688   3.470   4.301  0.6675  1.6305  1.0521
 3198WAT      O 9804   2.137   3.085   5.446 -1.0282  0.0402  0.0997
 3198WAT     H1 9805   2.154   3.093   5.540  1.1267 -0.5388 -0.1829
 3198WAT     H2 9806   2.183   3.005   5.420 -1.0359  0.5313 -1.5557
 3199WAT      O 9807   1.322   3.640   0.139 -0.2290 -0.0094 -0.0879
 3199WAT     H1 9808   1.388   3.576   0.112  0.9192  0.8499  0.6107
 3199WAT     H2 9809   1.370   3.722   0.149 -1.7471  1.0989 -1.3766
 3200WAT      O 9810   4.363   2.604   4.902 -0.3110 -0.6426 -0.3782
 3200WAT     H1 9811   4.430   2.668   4.880 -1.1909 -0.3765 -2.4906
 3200WAT     H2 9812   4.410   2.521   4.912  0.5859 -0.0467  0.4484
 3201WAT      O 9813   0.265   1.028   2.752 -0.2268 -0.2464  0.2556
 3201WAT     H1 9814   0.334   0.968   2.723 -0.3914 -0.2010 -0.2371
 3201WAT     H2 9815   0.277   1.105   2.696 -0.9053 -0.3815 -0.0813
 3202WAT      O 9816   0.592   3.616   4.348  0.3266 -0.6080 -0.2959
 3202WAT     H1 9817   0.507   3.647   4.315  0.3514 -1.3060 -1.0525
 3202WAT     H2 9818   0.648   3.614   4.270  1.0476 -0.1370  0.2043
 3203WAT      O 9819   3.794   2.707   5.157 -1.0594 -0.8434 -0.2242
 3203WAT     H1 9820   3.756   2.661   5.231 -1.8203  0.9491  0.5719
 3203WAT     H2 9821   3.771   2.799   5.172 -0.8422 -0.3707 -2.4480
 3204WAT      O 9822   2.830   4.226   5.263 -0.1742 -0.2347  0.2435
 3204WAT     H1 9823   2.748   4.260   5.227  0.3964  0.2723 -0.5981
 3204WAT     H2 9824   2.808   4.138   5.293 -0.6052 -0.8452 -1.6973
 3205WAT      O 9825   0.086   5.388   2.876 -0.1294 -0.1192 -0.0093
 3205WAT     H1 9826   0.146   5.334   2.826  0.5008  1.1408 -0.6631
 3205WAT     H2 9827   0.139   5.425   2.947  0.0045  1.3393 -0.8383
 3206WAT      O 9828   0.967   1.233   2.661  0.3871 -0.1118 -0.1143
 3206WAT     H1 9829   0.923   1.151   2.639 -1.9442  0.2806  2.5938
 3206WAT     H2 9830   1.053   1.206   2.695  0.1456 -1.3085 -0.4156
 3207WAT      O 9831   4.063   4.408   3.047 -0.8695  0.4445 -0.2376
 3207WAT     H1 9832   4.091   4.464   3.119  0.7043 -0.4782 -0.0862
 3207WAT     H2 9833   4.019   4.468   2.986 -1.4724  1.3778  1.0669
 3208WAT      O 9834   3.825   4.771   4.109 -0.3644  0.4264 -0.4696
 3208WAT     H1 9835   3.739   4.736   4.131 -0.3477  0.9323  0.4559
 3208WAT     H2 9836   3.831   4.852   4.160  1.1842 -0.2664  0.5003
 3209WAT      O 9837   0.726   4.702   3.195  0.4243  0.1253 -0.9231
 3209WAT     H1 9838   0.734   4.736   3.284 -2.0001 -0.4423 -0.4188
 3209WAT     H2 9839   0.699   4.777   3.143  0.2217  0.1005 -0.8537
 3210WAT      O 9840   4.443   1.105   4.488 -0.0496  0.0724  0.4258
 3210WAT     H1 9841   4.500   1.037   4.521 -2.0537 -0.8646  2.2206
 3210WAT     H2 9842   4.489   1.187   4.508  1.2633 -0.6753  0.5478
 3211WAT      O 9843   1.460   1.840   5.482 -0.3328 -0.0298  0.6292
 3211WAT     H1 9844   1.422   1.828   5.395 -1.6182  0.6521  1.0682
 3211WAT     H2 9845   1.433   1.763   5.531  0.8052 -0.6556  0.3113
 3212WAT      O 9846   2.633   2.861   4.876  0.7386  0.0083  0.3033
 3212WAT     H1 9847   2.551   2.909   4.871  0.0250 -1.2286 -0.4256
 3212WAT     H2 9848   2.686   2.896   4.805 -0.5093 -1.5254 -1.4821
 3213WAT      O 9849   2.247   2.820   4.556  0.1883 -0.6873 -0.1710
 3213WAT     H1 9850   2.247   2.872   4.476  0.1547  0.8754  0.8026
 3213WAT     H2 9851   2.332   2.777   4.556  1.1936  1.1742  0.0799
 3214WAT      O 9852   3.831  -0.012   1.836  0.4861 -0.5375 -0.0647
 3214WAT     H1 9853   3.814   0.035   1.917  1.2775 -0.2761 -0.0394
 3214WAT     H2 9854   3.923   0.005   1.817  0.2616 -0.4059 -1.1424
 3215WAT      O 9855   0.536   2.891   4.528 -0.2678 -0.0386  0.4984
 3215WAT     H1 9856   0.575   2.968   4.570 -0.2077  0.5182 -0.5656
 3215WAT     H2 9857   0.610   2.832   4.513 -0.1294  0.1974  0.2457
 3216WAT      O 9858   3.249   3.463   5.170 -0.0506  0.3087  0.5047
 3216WAT     H1 9859   3.304   3.510   5.106  1.7743 -1.1402  0.9229
 3216WAT     H2 9860   3.251   3.519   5.248 -0.4413  1.0072  0.0227
 3217WAT      O 9861   2.987   0.852   2.465  0.0597 -0.3292 -0.0818
 3217WAT     H1 9862   3.039   0.800   2.527  0.4660  0.5678  0.3502
 3217WAT     H2 9863   3.022   0.941   2.473 -0.5721  0.0020 -0.8606
 3218WAT      O 9864   0.659   3.240   3.159  0.9631  0.0311  0.4339
 3218WAT     H1 9865   0.663   3.268   3.068 -1.7999 -0.1803  0.1720
 3218WAT     H2 9866   0.701   3.154   3.159  3.0860  1.0098 -0.1237
 3219WAT      O 9867   0.867   5.598   3.711  0.1112  0.1870 -0.2941
 3219WAT     H1 9868   0.817   5.540   3.769  1.1884  0.4922  0.9804
 3219WAT     H2 9869   0.922   5.649   3.770  0.7729  0.9748 -1.5556
 3220WAT      O 9870   4.365   3.465   3.496  0.3958  0.7024 -0.3377
 3220WAT     H1 9871   4.379   3.524   3.569 -0.3963 -0.3599  0.7120
 3220WAT     H2 9872   4.303   3.400   3.529  0.9515 -0.5083 -1.5576
 3221WAT      O 9873   4.290   5.531   2.291  0.3252 -0.1658  1.0339
 3221WAT     H1 9874   4.199   5.509   2.273  0.0234 -0.1077  2.3766
 3221WAT     H2 9875   4.299   5.621   2.260  0.7789 -1.0773 -1.8253
 3222WAT      O 9876   4.008   1.022   2.075 -0.6200  0.4585 -0.2562
 3222WAT     H1 9877   3.934   0.964   2.056 -1.1861  1.3259 -0.7409
 3222WAT     H2 9878   4.000   1.041   2.169 -0.0075 -0.8097  0.0744
 3223WAT      O 9879   2.255   2.480   5.769  0.7247  0.2599  0.1430
 3223WAT     H1 9880   2.206   2.545   5.720 -0.1698 -0.8590 -0.5000
 3223WAT     H2 9881   2.341   2.477   5.728  0.5642  0.5891 -0.2136
 3224WAT      O 9882   4.165   2.418   2.046 -0.3314  0.0894  0.3081
 3224WAT     H1 9883   4.231   2.351   2.028  0.9327  1.4762 -0.4505
 3224WAT     H2 9884   4.152   2.414   2.141  0.5216 -0.5048  0.4083
 3225WAT      O 9885   4.172   4.122   4.585  0.2877  0.2966 -0.2226
 3225WAT     H1 9886   4.180   4.049   4.648  0.8351 -0.0961 -0.7337
 3225WAT     H2 9887   4.210   4.087   4.504 -2.6676 -0.1112 -1.5705
 3226WAT      O 9888   2.716   2.104   0.085  0.3648  0.6337  0.5226
 3226WAT     H1 9889   2.640   2.046   0.073  1.8957 -1.4010  0.0259
 3226WAT     H2 9890   2.678   2.190   0.102 -2.0517 -0.0402 -0.9262
 3227WAT      O 9891   2.095   3.889   3.966 -0.6104  0.1131  0.4568
 3227WAT     H1 9892   2.050   3.847   3.893 -1.6044  0.3750  0.8954
 3227WAT     H2 9893   2.064   3.980   3.965  1.5659  0.9146 -0.5282
 3228WAT      O 9894   2.073   4.459   5.423 -0.5634 -0.5771 -0.1356
 3228WAT     H1 9895   1.983   4.446   5.392  0.2421 -1.5941 -2.2056
 3228WAT     H2 9896   2.100   4.542   5.384 -0.0332 -1.1528 -1.0371
 3229WAT      O 9897   0.583   3.133   5.028  0.1072  0.1772  0.0258
 3229WAT     H1 9898   0.514   3.195   5.047  0.9166  1.3622 -0.7378
 3229WAT     H2 9899   0.660   3.187   5.009  0.5806 -0.9943 -1.6823
 3230WAT      O 9900   0.689   2.506   4.578 -0.1435  0.3875 -0.3640
 3230WAT     H1 9901   0.683   2.582   4.520 -1.0342 -0.0719 -0.8879
 3230WAT     H2 9902   0.611   2.510   4.632  0.6471  0.7720  0.7909
 3231WAT      O 9903   4.349   2.185   3.238  0.2462  0.5199  0.3920
 3231WAT     H1 9904   4.334   2.231   3.155 -0.3206  1.0182  0.7569
 3231WAT     H2 9905   4.442   2.198   3.256  0.7044 -0.7780 -0.8547
 3232WAT      O 9906   4.242   0.254   4.976 -0.0867  0.3895  0.0579
 3232WAT     H1 9907   4.188   0.204   5.038 -0.9145  0.7695 -0.3388
 3232WAT     H2 9908   4.247   0.199   4.898 -0.4386  0.6217 -0.1338
 3233WAT      O 9909   2.560   3.125   2.034  0.0943  0.0540 -0.0399
 3233WAT     H1 9910   2.504   3.195   2.066 -1.2018 -0.9884  0.0608
 3233WAT     H2 9911   2.556   3.058   2.102  1.5335 -0.0301 -0.0008
 3234WAT      O 9912   3.633   1.088   4.922  0.1034 -0.2047 -0.0682
 3234WAT     H1 9913   3.579   1.039   4.985 -0.2514  1.6575  1.1565
 3234WAT     H2 9914   3.611   1.050   4.837 -1.8210 -0.6688  0.5915
 3235WAT      O 9915   2.098   1.073   1.840 -0.1890 -0.0086 -0.1049
 3235WAT     H1 9916   2.130   1.088   1.751  2.4496  0.5895  0.8582
 3235WAT     H2 9917   2.127   0.984   1.861 -0.5163 -0.0275  0.2724
 3236WAT      O 9918   2.742   1.536   1.847  0.3673 -0.1155 -1.5748
 3236WAT     H1 9919   2.655   1.522   1.886  0.3628  0.0445 -1.5246
 3236WAT     H2 9920   2.756   1.631   1.855 -0.1835  0.1300 -3.1106
 3237WAT      O 9921   1.554   4.195   4.713 -0.4409 -0.4790 -0.3385
 3237WAT     H1 9922   1.558   4.252   4.789 -1.7882  0.7969 -1.1916
 3237WAT     H2 9923   1.644   4.193   4.680  0.5079 -2.2670  2.0814
 3238WAT      O 9924   0.055   0.833   3.453 -0.5893  0.2660 -0.2922
 3238WAT     H1 9925   0.122   0.860   3.515 -0.3134  0.6127 -0.7333
 3238WAT     H2 9926  -0.005   0.908   3.448 -0.9157  0.0254 -0.0315
 3239WAT      O 9927   3.577   2.731   4.120 -0.0442 -0.2086 -0.3237
 3239WAT     H1 9928   3.484   2.708   4.126  0.2773 -1.2900  3.8762
 3239WAT     H2 9929   3.621   2.670   4.179  2.8206  2.4349  0.5834
 3240WAT      O 9930   3.995   2.469   3.451 -0.0565 -0.4191 -0.3385
 3240WAT     H1 9931   4.071   2.433   3.406  0.8252  0.4064  0.4533
 3240WAT     H2 9932   3.935   2.395   3.458 -0.0205 -0.7005 -2.3731
 3241WAT      O 9933   0.570   0.846   4.582  0.2133  0.1824  0.1999
 3241WAT     H1 9934   0.581   0.793   4.503  0.2669  1.0004 -0.3570
 3241WAT     H2 9935   0.653   0.838   4.629  0.7355  0.8764 -0.5796
 3242WAT      O 9936   4.659   3.430   5.139 -0.1215  0.0115 -0.2852
 3242WAT     H1 9937   4.672   3.405   5.230  0.1867  0.5589 -0.1715
 3242WAT     H2 9938   4.564   3.437   5.129 -0.1602 -0.1862 -0.0452
 3243WAT      O 9939   1.926   2.772   3.306 -0.6009  0.1865 -0.0652
 3243WAT     H1 9940   1.996   2.831   3.278  1.3273 -1.6076  0.7270
 3243WAT     H2 9941   1.871   2.826   3.362 -0.3837  1.8724 -1.3795
 3244WAT      O 9942   2.358   0.150   2.852 -0.2067 -0.5545  0.2243
 3244WAT     H1 9943   2.424   0.130   2.786 -0.8809 -0.2079 -0.5881
 3244WAT     H2 9944   2.339   0.243   2.840 -0.0881 -0.3994  1.1550
 3245WAT      O 9945   0.314   3.022   3.428 -0.2469 -0.0965 -0.1800
 3245WAT     H1 9946   0.361   3.105   3.424  0.0677 -0.1783  1.2875
 3245WAT     H2 9947   0.334   2.979   3.345  0.7454  0.6897 -0.3674
 3246WAT      O 9948   0.681   3.745   1.463 -0.6362 -0.1846  0.4503
 3246WAT     H1 9949   0.594   3.723   1.429 -0.3869 -1.2067  0.4238
 3246WAT     H2 9950   0.705   3.826   1.418 -1.4786 -0.0134  0.2963
 3247WAT      O 9951   4.925   3.248   4.199 -0.0215  0.7956 -0.1177
 3247WAT     H1 9952   4.857   3.305   4.235 -0.9585 -0.4852  0.1810
 3247WAT     H2 9953   4.960   3.298   4.125  0.4181  2.5152  1.1655
 3248WAT      O 9954   1.568   4.937   5.667 -0.2090  0.4914  0.2819
 3248WAT     H1 9955   1.586   5.026   5.697 -0.9836  0.9904 -0.7048
 3248WAT     H2 9956   1.545   4.947   5.575  1.4721 -0.9253 -0.3572
 3249WAT      O 9957   0.026   3.274   2.853  0.3674  1.0672  0.6108
 3249WAT     H1 9958  -0.011   3.195   2.893  0.0980  1.5706  1.3957
 3249WAT     H2 9959   0.014   3.262   2.759 -1.1483  0.8861  0.8013
 3250WAT      O 9960   0.876   1.950   2.879  0.2869  0.1189 -0.5055
 3250WAT     H1 9961   0.801   1.890   2.884  0.3682  0.0658  0.1869
 3250WAT     H2 9962   0.951   1.893   2.866  0.2112  0.1722 -1.1984
 3251WAT      O 9963   0.999   0.802   5.103 -0.0190  0.0764  0.3181
 3251WAT     H1 9964   0.917   0.762   5.075  1.4683 -2.0694 -1.2334
 3251WAT     H2 9965   1.011   0.875   5.042 -0.9458  0.7040  0.8491
 3252WAT      O 9966   0.512   2.139   2.848  0.2725  0.0263  0.4538
 3252WAT     H1 9967   0.456   2.181   2.783 -1.3049  0.3514  1.9362
 3252WAT     H2 9968   0.486   2.179   2.931  1.2595 -1.3213  1.4610
 3253WAT      O 9969   3.924   4.202   4.494  0.6753 -0.4296 -0.4010
 3253WAT     H1 9970   3.892   4.166   4.411  0.7917 -0.8443 -0.2687
 3253WAT     H2 9971   4.019   4.196   4.488  0.9673  3.0502 -1.8203
 3254WAT      O 9972   3.238   4.547   3.391  0.4069 -0.1870 -0.8650
 3254WAT     H1 9973   3.241   4.494   3.471  0.7837 -0.5290 -1.1055
 3254WAT     H2 9974   3.147   4.577   3.387  0.3116 -0.4029 -0.4613
 3255WAT      O 9975   2.527   0.807   2.837  0.6074 -0.0348 -0.6290
 3255WAT     H1 9976   2.581   0.756   2.898  2.4987  2.6325  0.0705
 3255WAT     H2 9977   2.480   0.869   2.892 -0.0016  0.4380 -1.6496
 3256WAT      O 9978   3.977   3.301   4.829  0.1926  0.0766  0.0899
 3256WAT     H1 9979   3.943   3.299   4.740 -0.7665  0.3196  0.4416
 3256WAT     H2 9980   4.069   3.324   4.819 -0.2347  1.5528 -0.7599
 3257WAT      O 9981   0.988   3.500   0.855  0.1871  0.8124 -0.2992
 3257WAT     H1 9982   1.030   3.447   0.922 -2.3974  1.1650  1.7425
 3257WAT     H2 9983   0.938   3.438   0.803 -0.0447  0.8432 -0.1155
 3258WAT      O 9984   3.813   1.671   2.881 -0.0249  0.9404  0.1752
 3258WAT     H1 9985   3.766   1.748   2.914 -0.2478  0.1608  1.8366
 3258WAT     H2 9986   3.808   1.608   2.954  0.0966 -0.6665 -1.1397
 3259WAT      O 9987   0.087   2.969   2.759 -0.5031 -0.6584 -0.7001
 3259WAT     H1 9988   0.140   3.038   2.719  0.4851 -0.0813  1.4236
 3259WAT     H2 9989   0.137   2.888   2.743  1.3007 -0.0866  1.4979
 3260WAT      O 9990   0.203   0.414   2.405 -0.5660 -0.2833 -0.0141
 3260WAT     H1 9991   0.228   0.398   2.496 -1.3976  0.5245  0.3712
 3260WAT     H2 9992   0.167   0.330   2.375  0.0217 -0.6468  0.2871
 3261WAT      O 9993   4.669   2.481   3.455 -0.0470  0.2388 -0.3936
 3261WAT     H1 9994   4.763   2.495   3.439  0.1014 -2.1658 -2.2438
 3261WAT     H2 9995   4.657   2.506   3.546  2.3332  0.9012 -0.1775
 3262WAT      O 9996   3.486   2.795   4.963 -0.3045 -0.4185  0.0750
 3262WAT     H1 9997   3.505   2.755   5.048 -1.0509 -0.3480  0.2804
 3262WAT     H2 9998   3.493   2.890   4.980  1.9532 -0.4111 -0.5225
 3263WAT      O 9999   4.777   2.537   2.652 -0.1790 -0.6038 -0.2039
 3263WAT     H110000   4.697   2.514   2.698 -0.1915 -1.2630 -0.5391
 3263WAT     H210001   4.761   2.625   2.617 -0.2007 -0.1391  0.9459
 3264WAT      O10002   4.034   3.545   4.535  0.3633  0.4952 -0.0083
 3264WAT     H110003   4.129   3.556   4.542  0.4400  0.2754 -0.6230
 3264WAT     H210004   4.019   3.453   4.557  0.4838  0.1011 -1.4188
 3265WAT      O10005   0.263   3.432   4.864  0.1826 -0.3686  0.7133
 3265WAT     H110006   0.292   3.431   4.773 -0.3203  0.2560  0.5315
 3265WAT     H210007   0.317   3.500   4.905 -1.2115  1.0698  0.2817
 3266WAT      O10008   0.190   2.598   2.519 -0.7811 -0.1753 -0.3878
 3266WAT     H110009   0.265   2.543   2.497 -1.6561 -1.4867 -0.2008
 3266WAT     H210010   0.224   2.661   2.582  0.2637 -0.4489 -0.6605
 3267WAT      O10011   3.443   1.211   5.142  0.5546 -0.1953  0.2467
 3267WAT     H110012   3.385   1.285   5.125  0.5287 -0.3513 -0.3616
 3267WAT     H210013   3.395   1.157   5.205 -0.1579 -0.5465 -0.5788
 3268WAT      O10014   1.510   2.877   1.843  0.4329 -0.3296  0.2592
 3268WAT     H110015   1.456   2.936   1.894  2.2974  0.2861  1.6248
 3268WAT     H210016   1.489   2.790   1.877  0.8925 -0.0184  1.3852
 3269WAT      O10017   3.737   3.851   2.867  0.9673  0.7665  0.3840
 3269WAT     H110018   3.794   3.773   2.874 -1.5945 -1.3601 -0.7058
 3269WAT     H210019   3.748   3.881   2.777  0.7086  0.6367  0.3092
 3270WAT      O10020   4.085   3.288   5.081 -0.5402  0.1019  0.1467
 3270WAT     H110021   4.057   3.300   4.990  1.8436  0.1856 -0.6629
 3270WAT     H210022   4.112   3.197   5.086 -1.2068 -0.0613  0.9564
 3271WAT      O10023   3.450   2.558   1.049  0.7030 -0.6021  0.2290
 3271WAT     H110024   3.490   2.626   0.994 -0.3385  0.3686  0.6424
 3271WAT     H210025   3.409   2.498   0.986 -0.4770  0.5002 -0.0914
 3272WAT      O10026   0.014   4.071   4.619 -0.3563 -0.2181 -0.0628
 3272WAT     H110027   0.102   4.085   4.584 -0.7919 -0.1872 -1.2268
 3272WAT     H210028  -0.035   4.036   4.544 -1.0840 -1.1860  0.8351
 3273WAT      O10029   3.574   5.522   1.849  0.1065  0.0173 -0.1524
 3273WAT     H110030   3.654   5.572   1.831 -1.1601  2.3491  0.2541
 3273WAT     H210031   3.561   5.530   1.943  0.2633 -1.8003  0.0474
 3274WAT      O10032   0.157   2.053   3.814 -0.4806  0.3579 -0.6008
 3274WAT     H110033   0.200   1.987   3.868  1.6039  0.3452 -2.1624
 3274WAT     H210034   0.132   2.122   3.875 -1.9338 -1.4075  0.9505
 3275WAT      O10035   1.443   2.690   3.663  0.1259 -0.1434  0.3880
 3275WAT     H110036   1.373   2.632   3.693  1.7176 -2.7764 -0.5659
 3275WAT     H210037   1.511   2.682   3.729  0.0670  1.3308  0.6444
 3276WAT      O10038   2.049   2.699   0.078 -0.2557  0.4005  0.1941
 3276WAT     H110039   2.033   2.605   0.083 -1.8175  0.5247 -1.5177
 3276WAT     H210040   2.123   2.714   0.138 -0.9131 -1.6609  1.6327
 3277WAT      O10041   1.185   5.098   4.929 -0.5155  0.2321  0.0018
 3277WAT     H110042   1.174   5.149   4.849 -0.3903  0.2762  0.0118
 3277WAT     H210043   1.157   5.010   4.906 -1.1094  0.3905  0.0935
 3278WAT      O10044   0.873   4.582   5.175 -0.2129  0.0427  0.1902
 3278WAT     H110045   0.930   4.516   5.215 -0.2943  0.0591  0.3310
 3278WAT     H210046   0.932   4.635   5.122 -0.0708  0.1597  0.4653
 3279WAT      O10047   1.830   1.110   3.100 -0.0396 -0.2434  0.0641
 3279WAT     H110048   1.780   1.170   3.155  0.3139  0.4140 -0.3155
 3279WAT     H210049   1.906   1.161   3.071  0.7106 -1.1324  0.4025
 3280WAT      O10050   2.117   4.304   1.081  0.9057  0.1974 -0.6433
 3280WAT     H110051   2.032   4.346   1.068  2.2343  2.9001 -1.4581
 3280WAT     H210052   2.152   4.345   1.160  1.8190 -0.2278 -0.8116
 3281WAT      O10053   0.725   2.874   5.070  0.9003  0.7873  0.0464
 3281WAT     H110054   0.685   2.961   5.081 -0.2937  0.1335  1.1581
 3281WAT     H210055   0.811   2.882   5.110  0.0320  0.9436  1.9731
 3282WAT      O10056   4.744   4.723   1.852 -0.5153 -0.2862 -0.1889
 3282WAT     H110057   4.818   4.684   1.804  0.9491  2.2434 -0.1733
 3282WAT     H210058   4.768   4.712   1.944  0.7081  1.8865 -0.1857
 3283WAT      O10059   0.149   3.645   2.416  0.7874  0.0986 -0.5252
 3283WAT     H110060   0.076   3.603   2.462 -1.2636  0.8902 -2.8449
 3283WAT     H210061   0.180   3.578   2.354  0.5872  0.4637 -1.0257
 3284WAT      O10062   4.686   3.458   2.442 -0.0715  0.3700  0.3063
 3284WAT     H110063   4.713   3.503   2.362  1.5972 -0.5479  0.3121
 3284WAT     H210064   4.592   3.442   2.430  0.0484  0.6935 -1.2448
 3285WAT      O10065   4.070   3.366   2.766  0.3638  0.2547  0.0871
 3285WAT     H110066   4.020   3.387   2.845 -2.3733 -0.4815 -1.3199
 3285WAT     H210067   4.096   3.451   2.731 -2.8752  1.0134 -0.8263
 3286WAT      O10068   0.753   2.962   3.081  0.4744 -0.1141 -0.2502
 3286WAT     H110069   0.838   2.939   3.043  0.2356 -0.1239 -0.7960
 3286WAT     H210070   0.700   2.989   3.006  0.6686  2.0621  0.3305
 3287WAT      O10071   3.223   1.593   2.809  0.4464  0.0597 -0.5317
 3287WAT     H110072   3.230   1.549   2.725  0.7938 -0.4066 -0.2588
 3287WAT     H210073   3.306   1.576   2.853  0.8040  1.4136 -0.6278
 3288WAT      O10074   2.368   2.825   0.053  0.0483  0.0443 -0.1585
 3288WAT     H110075   2.293   2.882   0.038  1.1862  1.9689  1.0782
 3288WAT     H210076   2.359   2.797   0.145  2.8793  3.7460  1.5070
 3289WAT      O10077   2.101   2.035   3.498  0.1197  0.3709 -0.6200
 3289WAT     H110078   2.109   2.025   3.593  3.3742  0.7751 -0.7433
 3289WAT     H210079   2.007   2.048   3.483 -0.6996 -1.2432  2.3466
 3290WAT      O10080   1.902   5.000   2.369  0.1522 -0.2806 -0.6777
 3290WAT     H110081   1.916   4.906   2.380  0.0531 -0.1402  0.9560
 3290WAT     H210082   1.956   5.024   2.294  2.5167 -1.1310  0.6455
 3291WAT      O10083   1.297   4.007   3.780 -0.3860 -0.4481  0.2382
 3291WAT     H110084   1.285   3.987   3.687  0.9681  0.4201 -0.1414
 3291WAT     H210085   1.262   3.930   3.825 -0.1240 -1.3324 -1.0143
 3292WAT      O10086   2.180   2.357   2.505  0.0593  0.2504 -0.1447
 3292WAT     H110087   2.139   2.310   2.433  0.3382  0.2515 -0.3049
 3292WAT     H210088   2.126   2.436   2.515 -0.7044 -0.3246  0.4478
 3293WAT      O10089   4.688   2.368   2.939 -0.3564  0.7365  0.1915
 3293WAT     H110090   4.700   2.322   2.856  0.9676  0.5926  0.4473
 3293WAT     H210091   4.685   2.299   3.005 -0.9173  0.8813  0.3288
 3294WAT      O10092   2.746   0.339   1.008  0.8791 -0.0271  0.5118
 3294WAT     H110093   2.823   0.395   1.011  0.9982 -0.1731  0.2038
 3294WAT     H210094   2.684   0.380   1.068  1.1333  0.1839  0.6302
 3295WAT      O10095   1.569   4.017   0.513 -0.4659 -0.5256  0.2036
 3295WAT     H110096   1.604   4.104   0.491 -1.2149 -0.4896 -0.9375
 3295WAT     H210097   1.644   3.969   0.547  0.2859  0.1203 -0.4851
 3296WAT      O10098   1.060   0.221   2.200  0.4398  0.6110  0.2480
 3296WAT     H110099   1.007   0.295   2.227  0.8553  0.3961  1.7908
 3296WAT     H210100   1.148   0.257   2.190  0.2874  0.6914 -0.9191
 3297WAT      O10101   3.449   1.130   3.442 -0.2987  0.4412  0.6148
 3297WAT     H110102   3.475   1.200   3.382 -2.0091  0.9430  0.4047
 3297WAT     H210103   3.468   1.049   3.395 -1.8598  0.8286 -0.7789
 3298WAT      O10104   1.942   4.445   0.267 -0.2342 -0.2763  0.2275
 3298WAT     H110105   1.906   4.400   0.190  0.9120  0.3858 -0.7308
 3298WAT     H210106   1.889   4.525   0.275  0.7415  0.5272 -0.9723
 3299WAT      O10107   2.266   3.674   2.423  0.4581 -0.7755  0.2189
 3299WAT     H110108   2.311   3.686   2.506 -0.2682  0.5327  0.4399
 3299WAT     H210109   2.176   3.652   2.448  0.1834 -0.1599 -0.2170
 3300WAT      O10110   0.797   0.877   1.793 -0.1580  0.1789 -0.1597
 3300WAT     H110111   0.746   0.816   1.845 -0.0273  1.3511  1.4430
 3300WAT     H210112   0.754   0.880   1.708 -0.8962 -1.1659  0.1561
 3301WAT      O10113   0.696   2.517   3.063  0.6353  0.0214  0.7424
 3301WAT     H110114   0.778   2.492   3.022 -0.6202 -1.7700 -0.8394
 3301WAT     H210115   0.695   2.468   3.146  0.0394 -2.1048 -0.4533
 3302WAT      O10116   3.264   1.444   5.122  0.0220 -0.0310  0.6370
 3302WAT     H110117   3.306   1.473   5.040 -1.3369 -0.7766 -0.3603
 3302WAT     H210118   3.218   1.521   5.154 -1.7788 -0.4006 -0.8555
 3303WAT      O10119   0.186   3.936   3.771  0.3819 -0.2797 -0.0818
 3303WAT     H110120   0.208   3.987   3.848 -0.0019 -0.8355  0.4003
 3303WAT     H210121   0.119   3.988   3.726 -0.9526 -0.9331  1.0795
 3304WAT      O10122   1.229   3.525   4.276  0.0749 -0.4562  0.6273
 3304WAT     H110123   1.261   3.520   4.185 -1.1201  0.3294  0.1412
 3304WAT     H210124   1.213   3.434   4.301 -2.1770 -0.5724 -0.9375
 3305WAT      O10125   4.586   4.072   3.163 -0.3488 -1.2073 -0.3276
 3305WAT     H110126   4.616   4.032   3.081 -1.1792 -0.7576 -0.8604
 3305WAT     H210127   4.614   4.010   3.231  0.9322 -1.2657 -0.8777
 3306WAT      O10128   3.872   2.038   4.789 -0.0113  1.0889  0.4156
 3306WAT     H110129   3.949   2.016   4.737 -0.7149 -2.4571  0.6686
 3306WAT     H210130   3.908   2.077   4.868  1.4465  0.7701 -0.0475
 3307WAT      O10131   0.336   4.735   3.451 -0.1143 -0.0872  0.3542
 3307WAT     H110132   0.303   4.768   3.368 -0.5796  3.5287  1.7878
 3307WAT     H210133   0.260   4.696   3.493 -0.7026  1.0291  0.3681
 3308WAT      O10134   2.737   0.705   5.003  0.0893 -0.1831  0.1000
 3308WAT     H110135   2.743   0.801   5.003  0.3198 -0.0934  2.8483
 3308WAT     H210136   2.648   0.686   4.976  0.1539  0.7640 -0.8491
 3309WAT      O10137   2.827   3.925   3.985  0.2308  0.3811 -1.0163
 3309WAT     H110138   2.762   3.857   4.004  0.9842 -0.3862 -1.1430
 3309WAT     H210139   2.822   3.938   3.890 -0.2198  0.8253 -0.9358
 3310WAT      O10140   1.044   2.863   4.812  0.1592  0.7593 -0.3673
 3310WAT     H110141   0.978   2.887   4.747 -0.9418  0.8819  0.7470
 3310WAT     H210142   1.007   2.786   4.855  0.6994  0.8884  0.3443
 3311WAT      O10143   2.890   3.288   4.351  0.0673 -0.7935  0.4078
 3311WAT     H110144   2.839   3.244   4.282  2.2369 -3.7231  0.4503
 3311WAT     H210145   2.928   3.364   4.308 -2.5672  0.3183 -0.1561
 3312WAT      O10146   3.932   3.303   4.554  0.2445 -0.4714 -0.0840
 3312WAT     H110147   3.840   3.284   4.533  0.0928 -0.3002  0.4158
 3312WAT     H210148   3.980   3.231   4.513 -0.1676 -0.9084  0.1749
 3313WAT      O10149   2.280   5.212   3.563 -0.2445 -0.3421  0.7621
 3313WAT     H110150   2.252   5.282   3.504 -0.8492  2.1372  3.7490
 3313WAT     H210151   2.367   5.238   3.593 -1.0193 -0.0724  2.9473
 3314WAT      O10152   4.059   1.736   4.787 -0.0046 -0.0097 -0.6474
 3314WAT     H110153   4.107   1.696   4.714 -0.6077  0.1676 -1.1435
 3314WAT     H210154   4.036   1.663   4.844  0.3785 -0.1601 -0.6814
 3315WAT      O10155   0.819   4.818   3.965  0.1399 -0.1071  0.2950
 3315WAT     H110156   0.743   4.761   3.971  1.0032 -1.2065  1.1007
 3315WAT     H210157   0.853   4.804   3.877 -0.7889  0.7095 -0.2295
 3316WAT      O10158   0.526   2.504   3.925  0.2100 -0.0970 -0.2859
 3316WAT     H110159   0.521   2.535   3.835 -2.7011  2.0180  0.4336
 3316WAT     H210160   0.611   2.534   3.957  0.9596 -0.2087 -2.0537
 3317WAT      O10161   1.050   2.878   2.824 -1.0144 -0.1775  0.0843
 3317WAT     H110162   1.141   2.903   2.841  0.2943 -2.5135 -2.6349
 3317WAT     H210163   1.032   2.810   2.888 -0.6016 -0.1723  0.2114
 3318WAT      O10164   4.330   2.703   2.665  0.6829  0.2067 -0.2244
 3318WAT     H110165   4.293   2.791   2.673  1.3955  0.4465  0.7026
 3318WAT     H210166   4.341   2.690   2.571 -0.8511  0.4863 -0.4553
 3319WAT      O10167   1.242   2.083   2.350  0.1752 -0.2177 -0.0329
 3319WAT     H110168   1.307   2.125   2.405 -0.5639  1.2311 -0.2269
 3319WAT     H210169   1.167   2.070   2.409  0.1122 -0.5418 -0.1825
 3320WAT      O10170   1.149   5.386   2.927  0.5632  0.7605 -0.1268
 3320WAT     H110171   1.198   5.354   2.852 -0.1090  2.6470 -1.4572
 3320WAT     H210172   1.078   5.321   2.938  1.4599 -0.2627 -0.2188
 3321WAT      O10173   1.748   5.586   3.383 -0.0047  0.7692 -0.1094
 3321WAT     H110174   1.796   5.514   3.343  0.5767  0.2771  1.3927
 3321WAT     H210175   1.663   5.549   3.405  0.9571 -0.1446  2.4689
 3322WAT      O10176   4.618   4.217   2.267  0.2685  0.4652 -0.4255
 3322WAT     H110177   4.705   4.182   2.250  0.7704  0.4506  1.9114
 3322WAT     H210178   4.633   4.297   2.317 -1.0558  0.2286  0.4191
 3323WAT      O10179   0.600   4.678   2.443  0.1615 -0.2313  0.1843
 3323WAT     H110180   0.651   4.755   2.415  1.1716 -1.0499 -0.2762
 3323WAT     H210181   0.509   4.704   2.428  0.5450  0.3467 -1.4040
 3324WAT      O10182   0.123   5.240   4.060 -0.0476 -0.1496 -0.0847
 3324WAT     H110183   0.059   5.169   4.050 -1.8843  1.5817 -1.0886
 3324WAT     H210184   0.085   5.298   4.126  2.2826 -0.8889  2.0874
 3325WAT      O10185   0.297   1.455   2.933  0.4801  0.0871 -0.0489
 3325WAT     H110186   0.235   1.521   2.964  0.4209  0.3621 -0.7305
 3325WAT     H210187   0.251   1.410   2.863  0.6981 -0.3582  0.0911
 3326WAT      O10188   0.535   2.731   2.941 -0.0022  0.1152  0.0769
 3326WAT     H110189   0.455   2.679   2.950  0.0982 -0.1521 -0.5097
 3326WAT     H210190   0.602   2.680   2.987  0.7681 -1.8175 -2.8941
 3327WAT      O10191   1.945   5.198   1.960 -0.3889  0.1606 -0.2378
 3327WAT     H110192   1.947   5.259   1.887  1.7145 -1.2133 -1.4271
 3327WAT     H210193   1.980   5.249   2.034  1.9100  0.3399 -1.3472
 3328WAT      O10194   4.356   0.422   3.503  0.1867 -0.1171 -0.1191
 3328WAT     H110195   4.303   0.343   3.514 -0.1738  0.3488  1.8855
 3328WAT     H210196   4.446   0.390   3.504  0.0350 -0.5449  0.1619
 3329WAT      O10197   3.453   4.955   2.667 -0.0322  0.8652  0.1563
 3329WAT     H110198   3.423   5.012   2.596 -0.9216  0.6648  0.3590
 3329WAT     H210199   3.410   4.989   2.745 -0.7647 -0.1990  0.2481
 3330WAT      O10200   1.021   0.888   3.676 -0.2832 -0.3062 -0.3388
 3330WAT     H110201   1.022   0.793   3.683 -0.7988 -0.4182 -1.5534
 3330WAT     H210202   0.954   0.916   3.738  0.8629 -0.5977  1.1021
 3331WAT      O10203   3.950   4.395   5.589 -0.0336  0.0494  0.4305
 3331WAT     H110204   3.923   4.330   5.654 -2.1794  1.1202  0.7139
 3331WAT     H210205   3.945   4.349   5.506 -2.2513 -0.0266  0.5496
 3332WAT      O10206   1.398   3.314   1.968 -0.2862 -0.5638  0.4603
 3332WAT     H110207   1.418   3.285   2.057  0.2171  1.2501  0.9690
 3332WAT     H210208   1.470   3.281   1.915  0.2061 -0.3604  0.9974
 3333WAT      O10209   2.110   2.368   3.659  0.6132  0.3877  0.7558
 3333WAT     H110210   2.061   2.428   3.603  0.1844 -0.3825  0.3040
 3333WAT     H210211   2.055   2.357   3.737  0.8185  0.7790  0.9643
 3334WAT      O10212   4.521   4.099   2.588  0.6347  0.4844 -0.2177
 3334WAT     H110213   4.565   4.177   2.619  1.7771  0.8065 -2.3979
 3334WAT     H210214   4.439   4.131   2.550  0.9554  0.6176 -0.8204
 3335WAT      O10215   2.184   4.917   1.035  0.3705  0.1058 -0.2150
 3335WAT     H110216   2.173   4.952   0.947 -1.6639  1.4120  0.4851
 3335WAT     H210217   2.228   4.986   1.083  1.3236 -0.5364 -0.1386
 3336WAT      O10218   0.097   4.322   4.758 -0.2590  0.2080 -0.0262
 3336WAT     H110219   0.019   4.320   4.813  0.2347 -0.5436  0.6786
 3336WAT     H210220   0.150   4.248   4.789 -0.1524 -0.4939 -1.8018
 3337WAT      O10221   2.681   5.506   5.309  0.1745 -0.3409 -0.0160
 3337WAT     H110222   2.644   5.572   5.250 -0.7364 -0.2878  0.5895
 3337WAT     H210223   2.672   5.545   5.396 -1.7726 -1.8246  0.5343
 3338WAT      O10224   3.378   3.102   1.346  0.4918 -0.0980  0.2840
 3338WAT     H110225   3.365   3.027   1.288  3.0787  0.0207 -0.5835
 3338WAT     H210226   3.447   3.153   1.304 -0.9204  2.6316  1.0336
 3339WAT      O10227   0.367   2.981   3.173 -0.2759 -0.2459  0.3049
 3339WAT     H110228   0.279   2.980   3.136 -0.5680 -0.3304  0.9871
 3339WAT     H210229   0.422   3.015   3.102 -1.0662  1.1463  0.3150
 3340WAT      O10230   4.809   2.413   4.292  0.2288  0.2544 -0.3005
 3340WAT     H110231   4.805   2.357   4.370 -1.2276 -0.9125 -1.1581
 3340WAT     H210232   4.722   2.405   4.253  0.5244  1.8185 -1.3839
 3341WAT      O10233   1.105   2.677   2.668  0.1698 -0.0190  0.0250
 3341WAT     H110234   1.183   2.692   2.616 -0.0435  0.6324 -0.1169
 3341WAT     H210235   1.082   2.763   2.703  1.2005 -0.6724  2.5054
 3342WAT      O10236   4.556   0.774   2.936  0.1963 -0.0155 -0.3360
 3342WAT     H110237   4.562   0.761   2.842 -0.2814 -0.9478 -0.2472
 3342WAT     H210238   4.637   0.737   2.971  1.9290  3.1497 -0.5985
 3343WAT      O10239   2.150   1.804   4.899  0.2601 -0.5948  0.8738
 3343WAT     H110240   2.219   1.742   4.920  0.1295 -0.0869  3.0174
 3343WAT     H210241   2.195   1.877   4.858  0.6755 -1.2244  0.1877
 3344WAT      O10242   1.519   3.666   0.987 -0.7584  0.0166  0.3730
 3344WAT     H110243   1.566   3.661   1.070 -0.9560 -1.7439  0.4121
 3344WAT     H210244   1.483   3.755   0.985  1.3777  0.9632  0.9567
 3345WAT      O10245   3.813   0.869   4.869 -0.5626  0.2710  0.6780
 3345WAT     H110246   3.754   0.886   4.795 -0.7424  0.7229  0.9209
 3345WAT     H210247   3.830   0.955   4.906 -0.3689  0.0573  1.0854
 3346WAT      O10248   1.060   3.375   1.471  0.6221 -0.6357 -0.0080
 3346WAT     H110249   1.024   3.413   1.551 -1.2503  1.2193 -1.6289
 3346WAT     H210250   1.151   3.403   1.470  0.7379 -0.8429  1.5322
 3347WAT      O10251   2.373   3.436   2.600  0.0323 -0.0184 -0.3261
 3347WAT     H110252   2.335   3.350   2.581  0.3831  0.0309 -1.3040
 3347WAT     H210253   2.299   3.491   2.623 -0.1613 -0.6651  0.7094
 3348WAT      O10254   1.621   2.990   2.148  0.8841 -0.0373  0.1298
 3348WAT     H110255   1.672   2.940   2.084 -0.8096 -1.8490  0.1072
 3348WAT     H210256   1.540   3.013   2.102  0.8195  1.0691  0.7658
 3349WAT      O10257   0.515   4.540   3.120 -0.3223 -0.2162 -0.5843
 3349WAT     H110258   0.514   4.457   3.167  0.2779  0.7739  1.2977
 3349WAT     H210259   0.594   4.584   3.150 -1.2959  1.5755 -0.4883
 3350WAT      O10260   2.279   3.901   1.407 -0.6329 -0.2754  0.1740
 3350WAT     H110261   2.212   3.967   1.392  0.5116  0.7695 -0.5559
 3350WAT     H210262   2.330   3.935   1.481 -0.3083 -0.5724  0.0900
 3351WAT      O10263   0.060   5.370   4.929 -0.1845  0.5139 -0.2329
 3351WAT     H110264  -0.021   5.334   4.894  0.5388 -1.2846 -0.1151
 3351WAT     H210265   0.074   5.322   5.011  0.3216  1.7440  0.4326
 3352WAT      O10266   1.580   4.375   4.364 -0.0262 -0.3674 -0.0716
 3352WAT     H110267   1.596   4.445   4.300  0.6771 -0.1759  0.3057
 3352WAT     H210268   1.667   4.347   4.391 -0.3137 -0.5483  0.6870
 3353WAT      O10269   0.359   5.430   3.625  0.6063  0.0088  0.6368
 3353WAT     H110270   0.427   5.492   3.600  0.3547  0.6237  1.4297
 3353WAT     H210271   0.280   5.463   3.581  0.6308 -0.1786  0.4533
 3354WAT      O10272   0.330   2.717   3.951 -0.0875 -0.4726  0.2911
 3354WAT     H110273   0.395   2.650   3.975 -0.7856 -1.4669 -0.4785
 3354WAT     H210274   0.299   2.689   3.865 -0.3328  0.9241 -0.0895
 3355WAT      O10275   3.960   1.374   2.831 -0.5904  0.1019 -0.4200
 3355WAT     H110276   3.969   1.362   2.926 -1.1646  2.2533 -0.0537
 3355WAT     H210277   4.046   1.349   2.796  0.4396  1.5288  0.9394
 3356WAT      O10278   1.456   2.456   2.907  0.0873 -0.1076  0.1013
 3356WAT     H110279   1.472   2.362   2.904  0.8370  0.0301 -2.4202
 3356WAT     H210280   1.364   2.466   2.885  0.2349 -0.2398 -0.6099
 3357WAT      O10281   2.947   4.068   4.357 -0.9011  0.6075 -0.2387
 3357WAT     H110282   2.940   3.974   4.339 -4.3221  0.7148 -0.0990
 3357WAT     H210283   3.017   4.074   4.423 -1.0394 -1.9126  0.2510
 3358WAT      O10284   3.926   3.367   4.076 -0.0006  0.3686 -0.0345
 3358WAT     H110285   3.991   3.434   4.058 -0.6369  1.4933  1.6688
 3358WAT     H210286   3.849   3.415   4.107 -1.3016 -0.9955 -0.9588
 3359WAT      O10287   2.686   0.747   1.046  0.4539  0.1749 -0.0290
 3359WAT     H110288   2.592   0.735   1.028  0.1645  1.1396  0.7617
 3359WAT     H210289   2.698   0.711   1.134  0.9048 -0.2342 -0.2523
 3360WAT      O10290   3.460   4.128   2.592  0.1770  0.3824  0.3410
 3360WAT     H110291   3.538   4.090   2.632 -0.1478 -0.2294  0.4025
 3360WAT     H210292   3.478   4.222   2.590 -0.2583  0.5961  2.9399
 3361WAT      O10293   3.594   3.452   5.230  0.0215 -0.0778  0.0304
 3361WAT     H110294   3.610   3.367   5.189 -2.2028 -1.6888  2.2120
 3361WAT     H210295   3.500   3.466   5.221 -0.2257  0.4607  2.6434
 3362WAT      O10296   1.171   3.144   3.778 -0.0388  0.2880 -0.5328
 3362WAT     H110297   1.102   3.110   3.837 -0.1812 -1.1076 -1.4530
 3362WAT     H210298   1.194   3.069   3.723  1.9587  0.8345 -0.5201
 3363WAT      O10299   1.411   2.721   0.709  0.5099 -0.0601 -0.3389
 3363WAT     H110300   1.356   2.659   0.660  0.1092  0.9049 -1.1540
 3363WAT     H210301   1.370   2.727   0.795 -0.8432  0.7992 -0.9982
 3364WAT      O10302   0.090   3.322   3.715 -0.5684 -0.3688  0.4251
 3364WAT     H110303   0.172   3.371   3.718 -0.2710 -0.8291 -0.0719
 3364WAT     H210304   0.055   3.338   3.628 -0.5377 -0.9189  0.3073
 3365WAT      O10305   0.626   3.487   2.725  0.5575 -0.5622  0.1359
 3365WAT     H110306   0.652   3.554   2.788  2.7807 -1.0934 -0.1067
 3365WAT     H210307   0.639   3.527   2.640  0.5148 -0.8184  0.0066
 3366WAT      O10308   4.639   1.597   4.262  0.7779  0.2559 -0.0579
 3366WAT     H110309   4.641   1.639   4.176  2.7469 -0.9275 -0.6633
 3366WAT     H210310   4.611   1.666   4.322 -2.8630  0.5893 -1.8453
 3367WAT      O10311   4.401   4.898   5.107 -0.0202 -0.5957 -0.4569
 3367WAT     H110312   4.492   4.918   5.085  0.1735 -1.2312 -0.2600
 3367WAT     H210313   4.363   4.864   5.026 -0.3650  0.5724 -0.8077
 3368WAT      O10314   1.368   5.309   2.725  0.1227 -0.2017  0.5017
 3368WAT     H110315   1.317   5.238   2.685  0.9969 -1.1627  1.0384
 3368WAT     H210316   1.459   5.283   2.710  0.4560  0.2086  1.7568
 3369WAT      O10317   4.504   1.664   2.814 -0.2131 -0.3327 -0.3323
 3369WAT     H110318   4.443   1.694   2.747 -1.0516 -0.4930  0.3456
 3369WAT     H210319   4.544   1.586   2.777  1.3197  1.0330 -1.7404
 3370WAT      O10320   2.318   2.642   1.981 -0.6589  0.5391  0.5876
 3370WAT     H110321   2.242   2.677   2.027 -1.3840  2.8706 -2.0873
 3370WAT     H210322   2.292   2.642   1.889  1.1975 -2.5062 -0.0837
 3371WAT      O10323   0.929   2.237   4.327  0.1100 -0.3209 -0.2611
 3371WAT     H110324   0.853   2.270   4.377 -0.8753 -1.0902 -1.2120
 3371WAT     H210325   0.968   2.171   4.384  0.8102  0.9266  0.7474
 3372WAT      O10326   4.404   4.749   2.292 -0.5871  0.6753 -0.2427
 3372WAT     H110327   4.347   4.760   2.217  0.6057 -0.0414 -1.2987
 3372WAT     H210328   4.447   4.834   2.303  0.0224  0.4945 -1.0760
 3373WAT      O10329   3.838   5.550   2.680 -0.3497  0.0911 -0.0094
 3373WAT     H110330   3.920   5.534   2.633 -0.7483 -1.3170 -0.2430
 3373WAT     H210331   3.863   5.549   2.773 -0.3678 -2.1479  0.0093
 3374WAT      O10332   1.325   1.252   1.962  0.4791 -0.2840  0.0733
 3374WAT     H110333   1.302   1.342   1.935  0.3358 -0.5294 -0.6434
 3374WAT     H210334   1.292   1.197   1.891 -1.4466 -1.1186  1.5228
 3375WAT      O10335   0.282   2.158   4.108  0.3977 -0.2023 -0.8699
 3375WAT     H110336   0.206   2.204   4.071 -0.3837 -1.3481 -0.7269
 3375WAT     H210337   0.290   2.194   4.196  0.0815 -0.0162 -0.9133
 3376WAT      O10338   2.187   1.680   0.376  0.0159  0.1939  0.6783
 3376WAT     H110339   2.187   1.630   0.458  1.4092  1.0012  1.2108
 3376WAT     H210340   2.258   1.641   0.325 -1.4583 -0.9335 -0.5907
 3377WAT      O10341   3.017   5.174   4.039 -0.3620  0.5521 -0.3576
 3377WAT     H110342   3.083   5.121   4.085 -2.6658 -0.9674  1.4251
 3377WAT     H210343   2.981   5.115   3.973 -1.1402  0.7598 -0.1239
 3378WAT      O10344   4.417   2.106   2.665 -0.3050 -0.7238 -0.0860
 3378WAT     H110345   4.323   2.090   2.675 -0.9701  2.3531 -0.2052
 3378WAT     H210346   4.452   2.099   2.754 -0.7289 -1.4721  0.0241
 3379WAT      O10347   1.096   1.365   3.301 -0.0165  0.1749 -0.0992
 3379WAT     H110348   1.042   1.387   3.376  2.3077 -1.3418  2.1887
 3379WAT     H210349   1.067   1.277   3.275 -0.2213  0.3369 -0.4327
 3380WAT      O10350   1.815   0.935   1.582 -0.3249 -0.1298 -0.1358
 3380WAT     H110351   1.842   1.019   1.619  0.6506 -0.7723  0.6417
 3380WAT     H210352   1.736   0.956   1.531 -0.7661  1.0631  0.9770
 3381WAT      O10353   1.792   0.208   0.845 -0.1257 -0.5005  0.8178
 3381WAT     H110354   1.701   0.221   0.817 -0.2551  0.7486  1.7522
 3381WAT     H210355   1.839   0.187   0.764 -1.0732 -0.2158  0.1754
 3382WAT      O10356   2.748   2.099   1.642  0.0205  0.2908 -0.3170
 3382WAT     H110357   2.828   2.149   1.654  0.0836  0.2989 -0.7469
 3382WAT     H210358   2.702   2.106   1.726  0.8976 -0.4850  0.2425
 3383WAT      O10359   1.910   3.742   0.729  0.6393 -0.3178  0.0984
 3383WAT     H110360   1.989   3.726   0.781  0.5576 -3.2597 -0.5064
 3383WAT     H210361   1.942   3.745   0.639  0.2925  0.7127 -0.0002
 3384WAT      O10362   0.665   3.216   4.263  0.0689 -0.6462  0.5417
 3384WAT     H110363   0.622   3.261   4.190 -0.2500 -1.1383  0.4231
 3384WAT     H210364   0.594   3.190   4.321  0.3451 -0.0013  1.1816
 3385WAT      O10365   2.558   4.902   0.876  0.2339  0.2419 -0.4489
 3385WAT     H110366   2.463   4.901   0.869  0.2216 -0.5697 -0.2364
 3385WAT     H210367   2.584   4.985   0.835 -0.6092  0.8660  0.2392
 3386WAT      O10368   2.751   2.528   3.069  0.6564  0.2182  0.2535
 3386WAT     H110369   2.832   2.520   3.019  2.0765  1.8393  2.1442
 3386WAT     H210370   2.769   2.482   3.151 -0.1979  0.8939  0.8409
 3387WAT      O10371   2.730   4.061   3.763  0.2211  0.1612  0.4392
 3387WAT     H110372   2.771   4.146   3.750  0.3735  0.0505  0.2065
 3387WAT     H210373   2.666   4.076   3.834  0.3417  0.4347  0.4895
 3388WAT      O10374   0.260   0.496   3.206 -0.0694 -0.0174  0.2456
 3388WAT     H110375   0.279   0.564   3.271 -0.1439  0.7066 -0.4757
 3388WAT     H210376   0.216   0.542   3.135 -0.6072 -0.9173 -0.0268
 3389WAT      O10377   1.770   3.366   2.492  0.3251  0.7768 -0.1427
 3389WAT     H110378   1.766   3.461   2.502  0.1308  0.7730 -0.1797
 3389WAT     H210379   1.848   3.339   2.541  0.2986  0.9387 -0.0135
 3390WAT      O10380   1.592   4.808   0.757 -0.0159 -0.3880 -0.2491
 3390WAT     H110381   1.645   4.833   0.833 -0.3929 -0.0130 -0.1075
 3390WAT     H210382   1.536   4.883   0.741  0.4988 -0.2072 -1.2962
 3391WAT      O10383   4.061   2.862   4.727  0.2052 -0.2929  0.1807
 3391WAT     H110384   4.095   2.917   4.798 -2.1133  2.2491 -0.5063
 3391WAT     H210385   4.020   2.788   4.772  0.1569  0.4414  1.3781
 3392WAT      O10386   3.665   2.825   3.122  0.4304  0.3325  0.2224
 3392WAT     H110387   3.680   2.799   3.213 -1.2552 -1.0577  0.1530
 3392WAT     H210388   3.716   2.764   3.070  0.1184  0.0887  0.1984
 3393WAT      O10389   2.004   1.327   4.362 -0.3702  0.2179  0.0585
 3393WAT     H110390   2.085   1.279   4.344 -0.4455  0.3607 -0.6899
 3393WAT     H210391   2.025   1.382   4.438  0.2357  0.2591 -0.1363
 3394WAT      O10392   2.057   3.051   3.947  0.2354  0.2834 -0.4796
 3394WAT     H110393   2.048   3.127   3.889 -0.0804  1.3459  0.9257
 3394WAT     H210394   2.049   3.086   4.035 -2.4363 -1.7021  0.1960
 3395WAT      O10395   4.238   0.887   2.355 -0.1061 -0.2167  0.2123
 3395WAT     H110396   4.189   0.832   2.294  0.9198  0.5128 -1.3295
 3395WAT     H210397   4.222   0.976   2.324  1.4931  0.0823  0.1975
 3396WAT      O10398   2.204   4.085   2.273  0.1372 -0.0431  0.2034
 3396WAT     H110399   2.248   4.145   2.334 -0.1872  0.8586 -0.4304
 3396WAT     H210400   2.145   4.034   2.329  0.1279  0.4990  0.7039
 3397WAT      O10401   4.527   1.218   3.212 -0.0500  0.1922 -0.4706
 3397WAT     H110402   4.521   1.272   3.133  0.4233 -0.1196 -0.7199
 3397WAT     H210403   4.510   1.129   3.181 -1.0448  0.2123 -0.0248
 3398WAT      O10404   2.368   0.074   3.414 -0.1957  0.1155 -0.3464
 3398WAT     H110405   2.390   0.017   3.340 -1.3675  0.4232 -0.9713
 3398WAT     H210406   2.388   0.162   3.382  0.3626  0.1639  0.1273
 3399WAT      O10407   3.586   1.437   2.488 -0.2779 -0.2318 -0.3923
 3399WAT     H110408   3.561   1.527   2.467 -0.6286  0.0740  1.2032
 3399WAT     H210409   3.637   1.444   2.569 -1.7784 -1.5826  0.7407
 3400WAT      O10410   0.626   5.336   1.770 -0.0920 -0.4201  0.1333
 3400WAT     H110411   0.580   5.399   1.714  0.1207 -0.3104  0.0796
 3400WAT     H210412   0.559   5.306   1.832 -0.4476 -0.8908 -0.4680
 3401WAT      O10413   1.130   2.760   3.486 -0.4641 -0.1173  0.5242
 3401WAT     H110414   1.152   2.820   3.415  0.8397 -0.1499  0.8765
 3401WAT     H210415   1.118   2.816   3.562  1.9383 -0.3388  1.1304
 3402WAT      O10416   2.305   2.443   4.479 -0.0865  0.6610 -0.3379
 3402WAT     H110417   2.344   2.394   4.406 -0.2875 -0.1023  0.0509
 3402WAT     H210418   2.230   2.487   4.440  0.0564  0.6067 -0.6832
 3403WAT      O10419   4.605   5.048   3.556 -0.1345 -0.6707  0.9743
 3403WAT     H110420   4.547   4.996   3.613  0.5983 -1.9023  0.6170
 3403WAT     H210421   4.688   5.052   3.604  0.2107 -0.9460  0.4045
 3404WAT      O10422   4.794   3.873   2.764 -0.6498 -0.7237 -0.4013
 3404WAT     H110423   4.728   3.852   2.698 -0.0897 -0.8284 -0.9360
 3404WAT     H210424   4.877   3.878   2.715 -0.4729  0.8831  0.0069
 3405WAT      O10425   2.611   1.120   2.615 -0.0740  0.2572  0.0104
 3405WAT     H110426   2.539   1.180   2.634  0.3312  0.2255  1.8100
 3405WAT     H210427   2.575   1.059   2.551 -0.3868  2.5802 -2.2083
 3406WAT      O10428   0.689   5.030   5.204 -0.4035  0.0316 -0.2515
 3406WAT     H110429   0.741   5.110   5.202 -2.2785  1.3222 -1.2437
 3406WAT     H210430   0.662   5.021   5.295 -2.6350  2.3365 -0.5606
 3407WAT      O10431   3.240   2.338   1.945  0.1678  0.1636  0.2614
 3407WAT     H110432   3.217   2.421   1.904  0.3614  1.2042  2.1860
 3407WAT     H210433   3.327   2.352   1.982 -0.0575 -0.6885  1.1626
 3408WAT      O10434   2.695   5.072   0.642  0.0412  0.5139 -0.3877
 3408WAT     H110435   2.747   4.994   0.623 -1.3983 -1.3114  2.4963
 3408WAT     H210436   2.615   5.061   0.590  0.0173  0.2669 -0.2987
 3409WAT      O10437   4.304   3.922   5.234 -0.3499  0.5021  0.1978
 3409WAT     H110438   4.264   3.982   5.297  0.6635 -1.3369  2.7542
 3409WAT     H210439   4.266   3.837   5.253  1.8591 -0.5853  0.1422
 3410WAT      O10440   1.257   4.130   2.753  0.2588  0.3050  0.4347
 3410WAT     H110441   1.236   4.221   2.730 -4.0135  0.5748  3.8469
 3410WAT     H210442   1.198   4.077   2.700 -0.6509  0.0103  1.6731
 3411WAT      O10443   3.224   4.306   3.842  0.0265  0.0993 -0.5527
 3411WAT     H110444   3.277   4.385   3.856 -1.5603  1.0788  0.1105
 3411WAT     H210445   3.135   4.333   3.862 -0.5287 -1.9376 -0.0679
 3412WAT      O10446   1.326   3.803   4.329 -0.2738 -0.3052  0.0771
 3412WAT     H110447   1.286   3.813   4.415  0.7514  1.3056  0.4055
 3412WAT     H210448   1.312   3.711   4.306  0.7804 -1.1717  2.6333
 3413WAT      O10449   2.476   4.700   3.791  0.2130 -0.2170  0.2667
 3413WAT     H110450   2.446   4.670   3.877 -0.1161 -0.0358  0.2191
 3413WAT     H210451   2.395   4.723   3.745  0.4190  0.1202  0.0729
 3414WAT      O10452   4.354   4.145   2.212 -0.1106 -0.1686 -0.5395
 3414WAT     H110453   4.301   4.219   2.243 -0.3037 -0.7759  0.6466
 3414WAT     H210454   4.444   4.171   2.231 -0.2952 -1.1459  2.0690
 3415WAT      O10455   4.735   1.896   2.762 -0.1331 -0.6825  0.0876
 3415WAT     H110456   4.693   1.913   2.677  1.6074  0.0812 -0.6612
 3415WAT     H210457   4.681   1.828   2.802 -2.5474  0.7827 -0.4590
 3416WAT      O10458   0.670   4.175   2.989 -0.6091  0.4874  0.3099
 3416WAT     H110459   0.667   4.215   3.076 -0.4103 -0.6307  0.8416
 3416WAT     H210460   0.707   4.244   2.933  1.9578  0.3366  1.6378
 3417WAT      O10461   2.919   3.008   5.319 -0.2537 -0.2393 -0.2237
 3417WAT     H110462   2.835   2.995   5.276 -0.6616  0.5706  0.3096
 3417WAT     H210463   2.951   2.919   5.337 -0.7233 -0.5577 -0.9365
 3418WAT      O10464   0.922   2.417   2.968  0.7695  0.3334  0.1803
 3418WAT     H110465   0.884   2.329   2.966 -0.9856  0.9364  2.5953
 3418WAT     H210466   0.990   2.415   2.900 -0.4469 -2.2743 -1.1163
 3419WAT      O10467   3.483   1.931   2.020 -0.2871 -0.0941  0.6502
 3419WAT     H110468   3.473   1.873   1.944 -2.3124  0.2735  0.5919
 3419WAT     H210469   3.491   1.871   2.094  0.7710 -0.4445  0.2791
 3420WAT      O10470   3.928   0.839   2.598  0.0439 -0.5284  0.3586
 3420WAT     H110471   3.915   0.803   2.685  1.2622 -1.2034  0.2912
 3420WAT     H210472   3.956   0.765   2.545  0.1828  0.0422 -0.3958
 3421WAT      O10473   3.679   1.008   4.651  0.3992  0.4316 -0.0181
 3421WAT     H110474   3.743   1.012   4.579 -0.2556  0.1797 -0.6301
 3421WAT     H210475   3.602   0.967   4.612 -0.8066  2.3855  0.1918
 3422WAT      O10476   3.478   0.261   3.942  0.0511  0.2103 -0.2904
 3422WAT     H110477   3.502   0.267   3.850  0.8005  0.2261 -0.0938
 3422WAT     H210478   3.530   0.188   3.976  0.3118  0.6678  0.2964
 3423WAT      O10479   0.020   3.162   3.288  0.3547 -0.1202 -0.0472
 3423WAT     H110480   0.058   3.245   3.260  0.8672 -0.5420 -0.6445
 3423WAT     H210481   0.084   3.096   3.260  0.9010 -0.5925  2.1505
 3424WAT      O10482   2.661   2.326   2.734  0.0127 -0.2802 -0.3070
 3424WAT     H110483   2.596   2.348   2.801  0.6489  2.2687 -0.4192
 3424WAT     H210484   2.611   2.278   2.668 -0.9550 -1.5103  1.2566
 3425WAT      O10485   0.049   4.157   3.320  0.0894 -0.0596  0.2331
 3425WAT     H110486  -0.003   4.196   3.391 -1.4370 -1.5900  0.0374
 3425WAT     H210487   0.045   4.221   3.250 -0.5764  0.3639  0.6421
 3426WAT      O10488   2.947   3.652   0.486  0.2195 -0.1858  0.0975
 3426WAT     H110489   2.927   3.571   0.440  0.8401 -0.3745  0.1403
 3426WAT     H210490   2.946   3.627   0.579 -3.4842  0.7167  0.4482
 3427WAT      O10491   2.966   4.093   2.773  0.6221  0.3160 -0.0533
 3427WAT     H110492   2.893   4.123   2.828 -1.0645 -2.8085 -0.3113
 3427WAT     H210493   3.002   4.018   2.822  1.0167 -0.6703 -1.7848
 3428WAT      O10494   0.334   3.490   4.590 -0.2072 -0.3950 -0.5300
 3428WAT     H110495   0.398   3.555   4.617  0.2692 -0.9427 -0.3287
 3428WAT     H210496   0.300   3.522   4.506  3.0993 -1.9837 -2.6530
 3429WAT      O10497   0.275   3.802   4.526 -0.3249 -0.1089  0.3508
 3429WAT     H110498   0.318   3.887   4.522 -0.1682 -0.2179 -0.7900
 3429WAT     H210499   0.330   3.745   4.472 -0.8056 -0.7537  0.5272
 3430WAT      O10500   0.750   2.772   3.296 -0.0181  0.3138  0.3851
 3430WAT     H110501   0.831   2.733   3.263 -0.2549 -0.5745  0.8403
 3430WAT     H210502   0.718   2.826   3.224  0.4027 -0.1993 -0.1901
 3431WAT      O10503   2.880   5.167   2.221 -0.0796 -0.3720 -0.3046
 3431WAT     H110504   2.937   5.220   2.165  1.3994 -0.0307  1.4188
 3431WAT     H210505   2.802   5.222   2.234  1.9472  2.2014  2.5096
 3432WAT      O10506   2.216   3.135   3.417 -0.0577  0.2576  0.3594
 3432WAT     H110507   2.139   3.191   3.411  1.3154  2.1994  0.1220
 3432WAT     H210508   2.211   3.078   3.340 -0.3658  1.5421 -0.5921
 3433WAT      O10509   1.554   4.316   2.902 -0.2997  0.2792 -0.2146
 3433WAT     H110510   1.464   4.293   2.924 -0.0420  0.3134  0.9531
 3433WAT     H210511   1.599   4.318   2.986  0.7114  0.6212 -0.7489
 3434WAT      O10512   2.361   3.916   3.554 -0.2590 -0.2202 -0.0387
 3434WAT     H110513   2.407   3.882   3.630  1.4566  1.2633 -0.3486
 3434WAT     H210514   2.341   4.007   3.577 -0.9343 -0.1558 -0.8423
 3435WAT      O10515   0.700   0.789   2.503 -0.5046  0.5589  0.6478
 3435WAT     H110516   0.742   0.732   2.567 -0.4673  2.8645  2.7907
 3435WAT     H210517   0.645   0.730   2.451  1.6369 -1.7970  0.8810
 3436WAT      O10518   1.625   3.595   2.133  0.4139  0.2165  0.2229
 3436WAT     H110519   1.641   3.658   2.063  1.1942  2.5394  2.3569
 3436WAT     H210520   1.698   3.532   2.126  0.8204  0.7695 -0.6586
 3437WAT      O10521   1.117   2.265   5.096 -0.2565  0.1358  0.0601
 3437WAT     H110522   1.044   2.281   5.156  0.0761 -0.4551  0.6279
 3437WAT     H210523   1.075   2.239   5.014 -0.6913  0.2389  0.2489
 3438WAT      O10524   1.276   1.841   3.323 -0.0158  0.0138  0.3791
 3438WAT     H110525   1.236   1.874   3.242  0.6156  1.2084  0.5348
 3438WAT     H210526   1.370   1.842   3.306  0.0787 -0.4431  0.8629
 3439WAT      O10527   1.353   3.658   2.114 -0.0822 -0.3916 -0.1495
 3439WAT     H110528   1.366   3.733   2.057 -0.6501 -1.0968 -1.2503
 3439WAT     H210529   1.441   3.630   2.139  0.1168  1.4820  1.4747
 3440WAT      O10530   2.844   3.922   2.557  0.2888 -0.0124 -0.1634
 3440WAT     H110531   2.771   3.976   2.589  0.5457  1.3489 -1.7259
 3440WAT     H210532   2.911   3.929   2.625 -0.4484 -0.0226  0.5772
 3441WAT      O10533   2.585   3.807   3.712  0.0746 -0.4334  0.9118
 3441WAT     H110534   2.616   3.731   3.663  0.4067 -0.8968  1.8322
 3441WAT     H210535   2.651   3.874   3.697  0.9935 -1.0757  1.9955
 3442WAT      O10536   0.097   1.651   2.962  0.0891  0.1060  0.3469
 3442WAT     H110537   0.082   1.707   3.038  2.1132  0.5770  0.4566
 3442WAT     H210538   0.078   1.706   2.887 -1.0930 -0.0999  0.4768
 3443WAT      O10539   4.605   1.954   3.842  0.3402 -0.3537 -0.1196
 3443WAT     H110540   4.627   2.045   3.863 -1.1832  0.1652 -0.5940
 3443WAT     H210541   4.683   1.919   3.801  1.1521  0.5612  0.5924
 3444WAT      O10542   2.855   3.968   3.019  0.1915 -0.7742  0.4370
 3444WAT     H110543   2.869   3.880   3.052  0.3652 -1.2790 -0.9115
 3444WAT     H210544   2.909   4.024   3.074 -0.0377 -1.4788  1.3995
 3445WAT      O10545   2.154   1.742   4.545 -0.5412  0.3849 -0.6462
 3445WAT     H110546   2.122   1.658   4.512  0.5121  0.5331 -2.1597
 3445WAT     H210547   2.201   1.719   4.626 -2.0670 -0.1680  0.1280
 3446WAT      O10548   1.777   2.850   3.531  0.0769  0.1346 -0.2477
 3446WAT     H110549   1.833   2.811   3.598  0.3350 -0.2144 -0.6623
 3446WAT     H210550   1.772   2.943   3.555  1.7202  0.4006 -0.8036
 3447WAT      O10551   4.072   3.071   4.508 -0.0090  0.1326 -0.6478
 3447WAT     H110552   4.084   3.031   4.594 -0.0283  0.5288 -0.4593
 3447WAT     H210553   4.011   3.012   4.463  0.1640 -0.1878 -0.4660
 3448WAT      O10554   1.161   3.392   3.927 -0.1627 -0.0143  0.0240
 3448WAT     H110555   1.248   3.404   3.965 -0.1886  2.5753 -0.5349
 3448WAT     H210556   1.172   3.319   3.866  1.5160 -0.0050  0.2638
 3449WAT      O10557   2.354   5.643   4.135  0.1788  0.0085 -0.0609
 3449WAT     H110558   2.313   5.588   4.068  2.7660 -0.4193 -1.4339
 3449WAT     H210559   2.426   5.589   4.169 -1.5112 -0.1378  3.8056
 3450WAT      O10560   1.595   3.362   5.556  0.1240  0.1103 -0.0352
 3450WAT     H110561   1.689   3.376   5.545  0.0728  0.7263  0.2492
 3450WAT     H210562   1.556   3.446   5.532 -0.4711 -0.5859 -1.6030
 3451WAT      O10563   4.440   0.927   3.778 -0.2624  0.9112 -0.4659
 3451WAT     H110564   4.479   0.884   3.702 -0.5658 -0.0732 -0.0783
 3451WAT     H210565   4.483   0.886   3.853 -0.7186  1.1262 -0.0820
 3452WAT      O10566   2.767   1.619   2.180 -0.3527  0.2785  0.1056
 3452WAT     H110567   2.714   1.655   2.109 -0.2103 -0.3003 -0.3032
 3452WAT     H210568   2.819   1.692   2.211 -0.5018  0.5642 -0.3101
 3453WAT      O10569   2.412   0.423   3.189 -0.5273 -0.0078  0.3234
 3453WAT     H110570   2.364   0.483   3.132  0.5511 -0.3992 -1.0620
 3453WAT     H210571   2.491   0.471   3.214 -0.5533 -0.1748  0.7357
 3454WAT      O10572   1.522   3.172   2.561  0.0965  0.3559  0.0699
 3454WAT     H110573   1.614   3.196   2.547  0.4521 -0.0096  1.5908
 3454WAT     H210574   1.475   3.255   2.557  0.6029  0.6492  0.0763
 3455WAT      O10575   3.068   5.093   4.388 -0.0865 -0.2800 -0.6369
 3455WAT     H110576   3.122   5.099   4.467 -0.6805 -3.6841  0.1683
 3455WAT     H210577   2.982   5.124   4.417  0.4169  1.4647 -0.8803
 3456WAT      O10578   0.007   3.518   4.797 -0.3253  0.2750 -1.0097
 3456WAT     H110579  -0.037   3.439   4.827 -0.3552  0.4457 -0.5961
 3456WAT     H210580   0.099   3.504   4.819 -0.6858  1.4686  1.5590
 3457WAT      O10581   0.077   3.400   3.166  0.2933 -0.2758 -0.5671
 3457WAT     H110582   0.012   3.465   3.193  1.6031  0.3511  1.3340
 3457WAT     H210583   0.144   3.450   3.122  0.9899 -0.3965  0.3187
 3458WAT      O10584   2.044   2.259   2.286  0.2045 -0.3028  0.0234
 3458WAT     H110585   2.046   2.321   2.214  0.8599 -1.0383 -0.6062
 3458WAT     H210586   1.958   2.218   2.280  0.9551 -1.7509 -1.5670
 3459WAT      O10587   1.610   2.091   2.359  0.5169 -0.4330 -0.7136
 3459WAT     H110588   1.622   2.186   2.352  1.1494 -0.3839  0.7253
 3459WAT     H210589   1.695   2.058   2.387 -0.3173 -1.1243  1.1823
 3460WAT      O10590   2.218   1.986   5.496 -0.1391  0.1097  0.1762
 3460WAT     H110591   2.256   1.925   5.434 -0.0106 -0.6524  0.9898
 3460WAT     H210592   2.160   2.041   5.443  1.8106  1.1046 -1.0296
 3461WAT      O10593   2.219   0.390   3.536  0.4340 -0.0831  0.6383
 3461WAT     H110594   2.152   0.439   3.489 -0.1293  1.9724  3.3137
 3461WAT     H210595   2.170   0.334   3.596  1.1074 -0.4281  0.8722
 3462WAT      O10596   4.050   3.963   2.141 -0.3700 -0.9134 -0.2451
 3462WAT     H110597   4.053   3.908   2.219 -0.8730 -0.8673 -0.1876
 3462WAT     H210598   4.134   3.948   2.098  1.2151  1.3285  1.8159
 3463WAT      O10599   1.368   3.261   4.742  0.3344  0.1895  0.0610
 3463WAT     H110600   1.440   3.254   4.805  1.3067  0.1396 -1.0378
 3463WAT     H210601   1.391   3.336   4.687 -1.3776  1.3368  0.8296
 3464WAT      O10602   2.682   3.065   2.470 -0.5935  0.2934 -0.2205
 3464WAT     H110603   2.691   3.159   2.485  1.4093 -0.0197  0.8750
 3464WAT     H210604   2.632   3.033   2.544  0.9231  0.1650  0.7869
 3465WAT      O10605   1.707   0.456   1.754  0.0026  0.1956  0.0569
 3465WAT     H110606   1.783   0.499   1.716 -0.3960  0.4077 -0.5081
 3465WAT     H210607   1.636   0.518   1.742 -0.3576 -0.1858  0.1830
 3466WAT      O10608   0.531   3.745   2.028 -0.3743  0.4807 -0.1837
 3466WAT     H110609   0.443   3.709   2.034 -0.1829  0.0182 -0.1409
 3466WAT     H210610   0.550   3.747   1.934 -1.0521  2.1189 -0.3329
 3467WAT      O10611   0.713   0.973   4.136 -0.0552  0.0750 -0.6415
 3467WAT     H110612   0.687   1.035   4.068  1.5451 -0.0750 -1.4469
 3467WAT     H210613   0.802   0.999   4.160  0.2543 -1.2401 -0.2358
 3468WAT      O10614   2.524   1.130   3.709 -0.4446  0.4899 -0.0466
 3468WAT     H110615   2.564   1.061   3.762  0.0992  0.7818 -0.0744
 3468WAT     H210616   2.437   1.142   3.747 -0.1088  0.6136  0.7091
 3469WAT      O10617   4.622   2.546   3.726  0.1267  0.0013  0.0630
 3469WAT     H110618   4.593   2.630   3.692 -2.6621 -0.0644  1.8666
 3469WAT     H210619   4.668   2.568   3.808 -2.1628 -0.1685  1.4935
 3470WAT      O10620   2.348   4.679   1.044  0.3507  0.0982  0.8040
 3470WAT     H110621   2.390   4.669   1.130 -1.2212  0.2259  1.6292
 3470WAT     H210622   2.296   4.759   1.053 -0.8893 -0.6206  0.1906
 3471WAT      O10623   2.877   4.123   1.934  0.1722 -0.0957  0.2097
 3471WAT     H110624   2.794   4.153   1.897 -0.0839 -0.2024  0.6927
 3471WAT     H210625   2.930   4.202   1.940 -0.0829  0.0640  0.3857
 3472WAT      O10626   1.440   5.593   5.748  0.4054 -0.2253 -0.1893
 3472WAT     H110627   1.529   5.624   5.731 -0.3044  0.8341 -2.3385
 3472WAT     H210628   1.449   5.499   5.759  1.8755 -0.0469  0.3616
 3473WAT      O10629   0.888   5.354   2.109  0.3166  0.2628 -0.3654
 3473WAT     H110630   0.861   5.326   2.022  0.2358  1.0335 -0.5869
 3473WAT     H210631   0.956   5.291   2.134  0.0560 -0.1990 -0.8140
 3474WAT      O10632   2.484   4.247   0.838 -0.3910 -0.2154 -0.2310
 3474WAT     H110633   2.577   4.267   0.843 -0.1083 -1.1702 -1.2679
 3474WAT     H210634   2.461   4.218   0.926  0.3720 -0.3100 -0.0551
 3475WAT      O10635   2.638   1.076   1.981  0.3875  0.1219  0.0811
 3475WAT     H110636   2.720   1.125   1.992 -0.5408  1.7115  0.1164
 3475WAT     H210637   2.571   1.131   2.021 -0.8593 -0.6834 -0.8341
 3476WAT      O10638   0.411   3.655   2.320  0.3776 -0.4106  1.5560
 3476WAT     H110639   0.488   3.711   2.324  1.7548 -2.1785  1.0959
 3476WAT     H210640   0.373   3.660   2.408  0.2849  1.4268  1.4371
 3477WAT      O10641   3.309   1.202   2.713  0.2382 -0.1836 -0.2717
 3477WAT     H110642   3.339   1.270   2.773 -1.2077  0.6959 -0.4814
 3477WAT     H210643   3.369   1.130   2.726 -0.1739 -0.1399  2.4664
 3478WAT      O10644   2.486   3.354   4.994 -0.2881  0.0947  0.6897
 3478WAT     H110645   2.548   3.425   4.977 -1.3088  1.1552  1.2064
 3478WAT     H210646   2.518   3.281   4.943  0.9024  0.8834  0.2702
 3479WAT      O10647   0.753   0.545   1.637  0.2007  0.0916  0.2382
 3479WAT     H110648   0.846   0.537   1.617  0.2794  0.7935  0.3037
 3479WAT     H210649   0.750   0.559   1.732  0.0488  0.3822  0.1922
 3480WAT      O10650   1.318   3.366   2.509  0.2878  0.0337 -0.3794
 3480WAT     H110651   1.300   3.361   2.415  0.3176 -0.5009 -0.3584
 3480WAT     H210652   1.242   3.325   2.550  1.6522 -2.6020 -0.3013
 3481WAT      O10653   1.114   1.103   3.513  0.0767  0.3831  0.0500
 3481WAT     H110654   1.171   1.048   3.460 -0.2419  0.2123 -0.1204
 3481WAT     H210655   1.066   1.042   3.569  0.0793  0.5279  0.2133
 3482WAT      O10656   2.125   3.893   2.878  0.2690 -0.3579 -0.6317
 3482WAT     H110657   2.072   3.815   2.863 -0.8525 -0.0620  1.4014
 3482WAT     H210658   2.160   3.882   2.967 -0.8671  1.9096  0.1961
 3483WAT      O10659   1.568   2.963   0.015  0.0361 -0.1490 -0.0261
 3483WAT     H110660   1.482   2.940  -0.021 -0.1536 -0.1270  0.3981
 3483WAT     H210661   1.548   3.012   0.095  0.4438  0.4044 -0.2581
 3484WAT      O10662   3.054   2.971   5.607  0.3041  0.1627  0.0042
 3484WAT     H110663   3.003   3.003   5.532  0.0115 -3.1069 -1.3738
 3484WAT     H210664   2.988   2.952   5.674 -0.0754 -1.6829 -0.8467
 3485WAT      O10665   1.780   1.166   1.310  0.6195  0.5622  0.9327
 3485WAT     H110666   1.855   1.108   1.324  0.0522 -1.4004 -2.8063
 3485WAT     H210667   1.817   1.254   1.315  2.5942 -0.2420  1.7847
 3486WAT      O10668   2.128   0.654   4.326 -0.1342 -0.1275 -0.5978
 3486WAT     H110669   2.045   0.632   4.367  0.0514  0.6421  0.2295
 3486WAT     H210670   2.191   0.593   4.364 -0.4513 -1.2445 -1.8271
 3487WAT      O10671   0.491   4.010   4.946  0.0239  0.0457 -0.0439
 3487WAT     H110672   0.559   4.072   4.973 -0.4844  0.7681 -0.3865
 3487WAT     H210673   0.457   3.975   5.028  1.8148 -1.4633  0.1098
 3488WAT      O10674   0.602   4.003   3.877  0.1682 -0.4104  0.6267
 3488WAT     H110675   0.643   3.919   3.897  0.2218 -0.5109  0.1084
 3488WAT     H210676   0.666   4.069   3.903  0.3996 -0.5495  0.4049
 3489WAT      O10677   2.737   5.393   2.487  0.6098 -0.3854  0.1751
 3489WAT     H110678   2.666   5.451   2.515  1.0556  1.0671 -1.4730
 3489WAT     H210679   2.805   5.404   2.553  0.0487 -0.3229  0.7562
 3490WAT      O10680   3.308   2.944   4.782 -0.1214  0.5425  0.0828
 3490WAT     H110681   3.260   2.988   4.852 -0.9398 -1.1384  0.6240
 3490WAT     H210682   3.350   2.870   4.825  1.5247  0.9584 -0.7355
 3491WAT      O10683   2.015   3.605   2.490 -0.1989 -0.1977  0.3122
 3491WAT     H110684   1.926   3.641   2.497  0.1052  0.4957  0.6951
 3491WAT     H210685   2.003   3.523   2.442 -1.1604 -0.5169  1.0365
 3492WAT      O10686   0.604   0.369   4.153 -0.6069 -0.3984  0.5070
 3492WAT     H110687   0.658   0.292   4.164  0.1227 -0.1512 -1.0783
 3492WAT     H210688   0.529   0.339   4.102  0.1485  0.0901 -0.9491
 3493WAT      O10689   2.483   2.763   1.374  0.2998  0.4482  0.0254
 3493WAT     H110690   2.427   2.686   1.381  1.3657 -0.2306  1.9883
 3493WAT     H210691   2.427   2.831   1.339 -1.3068 -0.6278  0.4085
 3494WAT      O10692   4.784   4.752   2.193  0.9192 -0.0484  0.0505
 3494WAT     H110693   4.731   4.823   2.230 -1.1745  0.6160 -3.7308
 3494WAT     H210694   4.874   4.774   2.220 -0.1162  1.4566  2.7227
 3495WAT      O10695   2.951   0.523   1.081 -0.3906 -0.0465 -0.4131
 3495WAT     H110696   2.937   0.537   1.174  0.7287 -1.0340 -0.0787
 3495WAT     H210697   2.955   0.611   1.044  2.2153  0.4948  0.9505
 3496WAT      O10698   4.697   2.356   4.779  0.1587  0.3842 -0.0957
 3496WAT     H110699   4.675   2.437   4.732 -1.2688 -0.4062 -0.8681
 3496WAT     H210700   4.757   2.310   4.719  1.8733  1.3307  0.8311
 3497WAT      O10701   1.394   1.828   5.200 -0.4248 -0.0887 -0.1964
 3497WAT     H110702   1.369   1.796   5.114  1.5338  0.3229 -0.9755
 3497WAT     H210703   1.483   1.862   5.188 -1.0900  2.4629  1.3643
 3498WAT      O10704   2.585   2.701   1.633  0.1207  0.2121  0.1065
 3498WAT     H110705   2.657   2.645   1.607 -1.0178 -1.0775 -0.3549
 3498WAT     H210706   2.519   2.689   1.565 -0.8658  0.7182  0.9429
 3499WAT      O10707   3.788   3.460   3.583  0.5129  0.1874 -0.0946
 3499WAT     H110708   3.855   3.453   3.515 -0.1263 -1.2924 -0.6078
 3499WAT     H210709   3.721   3.517   3.546 -0.0752 -1.0155 -0.9501
 3500WAT      O10710   1.735   4.254   1.816  0.0748 -0.0094  0.0247
 3500WAT     H110711   1.744   4.185   1.750  1.0458 -0.8216  0.9681
 3500WAT     H210712   1.824   4.285   1.830 -0.0812 -0.0295  1.1237
 3501WAT      O10713   0.171   3.924   3.413 -0.6921  0.2595  0.1534
 3501WAT     H110714   0.209   3.960   3.493 -2.1581  1.8489  0.1848
 3501WAT     H210715   0.130   3.999   3.370  0.0151 -0.5689 -2.0866
 3502WAT      O10716   2.921   2.300   2.834 -0.4842  0.3131  0.3473
 3502WAT     H110717   2.946   2.382   2.876 -0.1493 -0.4601  1.7507
 3502WAT     H210718   2.829   2.311   2.812 -0.6495  0.7982  1.2294
 3503WAT      O10719   1.675   4.361   2.671 -0.1540  0.2413 -0.4902
 3503WAT     H110720   1.769   4.359   2.686 -0.0133  0.9247 -1.1790
 3503WAT     H210721   1.636   4.337   2.755  0.6213  0.6575 -0.0001
 3504WAT      O10722   0.992   3.385   2.928  0.0490  0.8110 -0.0887
 3504WAT     H110723   0.971   3.451   2.994  0.2232  0.3204  0.4576
 3504WAT     H210724   0.908   3.345   2.906 -0.0367  1.1102 -0.3154
 3505WAT      O10725   0.296   3.303   2.941 -0.1383 -0.7882  0.0732
 3505WAT     H110726   0.296   3.352   3.024  0.8190 -0.5448 -0.0584
 3505WAT     H210727   0.204   3.299   2.916 -0.4852 -1.1718  1.3265
 3506WAT      O10728   1.111   0.800   3.201  0.3006  0.0303  0.3922
 3506WAT     H110729   1.016   0.789   3.204  0.4203 -1.6018 -0.6852
 3506WAT     H210730   1.135   0.823   3.291 -1.1599  1.0476  0.5547
 3507WAT      O10731   2.291   4.434   0.098  0.0241 -0.1867 -0.2164
 3507WAT     H110732   2.363   4.498   0.096 -0.7131  0.6867  0.1668
 3507WAT     H210733   2.316   4.372   0.165 -0.3359  1.0730  1.1384
 3508WAT      O10734   2.329   3.091   3.095 -0.3874  0.4418  0.2651
 3508WAT     H110735   2.355   3.172   3.052 -1.1438  0.0560 -0.9563
 3508WAT     H210736   2.373   3.022   3.044 -0.1858  0.0451  0.9603
 3509WAT      O10737   1.933   1.401   1.283  0.4425 -0.3882 -0.5506
 3509WAT     H110738   2.027   1.380   1.283  0.6103  0.2930  0.1346
 3509WAT     H210739   1.926   1.478   1.227 -0.0625 -1.7276 -2.4448
 3510WAT      O10740   3.199   1.221   1.990  0.3564 -0.5657 -0.3552
 3510WAT     H110741   3.146   1.279   2.044  1.0239  0.8476 -1.1764
 3510WAT     H210742   3.147   1.140   1.985 -0.5959 -0.0558  0.7925
 3511WAT      O10743   2.575   5.328   1.102  0.2204  0.3255  0.1865
 3511WAT     H110744   2.593   5.314   1.009 -1.5184  1.0776 -0.3014
 3511WAT     H210745   2.660   5.315   1.144  1.2777  0.9235 -1.6021
 3512WAT      O10746   1.961   1.178   2.372 -0.1231  0.0435  0.0720
 3512WAT     H110747   2.035   1.239   2.365  0.2906 -0.5850 -1.3742
 3512WAT     H210748   1.901   1.220   2.434  0.5591  1.4858 -0.2109
 3513WAT      O10749   2.466   2.145   0.681  0.4611 -0.3222  0.3628
 3513WAT     H110750   2.448   2.238   0.666  0.2715 -0.0579  2.0129
 3513WAT     H210751   2.427   2.100   0.605 -0.7031  0.8350  0.2484
 3514WAT      O10752   1.509   2.129   3.635 -0.8095  0.4083 -0.1003
 3514WAT     H110753   1.519   2.194   3.566 -1.0679  1.6189  0.9551
 3514WAT     H210754   1.526   2.178   3.716  0.4628 -1.1714  0.6532
 3515WAT      O10755   2.621   2.380   0.112  0.4839  0.3474  0.9913
 3515WAT     H110756   2.583   2.412   0.030 -1.1556  0.8559  1.9195
 3515WAT     H210757   2.716   2.392   0.100  0.2890  0.3856 -0.8239
 3516WAT      O10758   0.212   3.374   2.285 -0.4846 -0.0508 -0.4203
 3516WAT     H110759   0.188   3.300   2.228 -0.6328 -0.8636  0.6591
 3516WAT     H210760   0.308   3.376   2.282 -0.3196 -1.8426  1.3672
 3517WAT      O10761   1.892   3.233   3.683  0.0860  0.0084 -0.0967
 3517WAT     H110762   1.806   3.213   3.646 -0.8221  2.4461  0.4714
 3517WAT     H210763   1.874   3.255   3.774  1.3464  0.3196  0.0852
 3518WAT      O10764   3.261   1.471   2.267  0.3587 -0.1783 -0.1137
 3518WAT     H110765   3.293   1.388   2.233  1.4983  0.5132 -0.7860
 3518WAT     H210766   3.321   1.536   2.232  0.9285  0.7030  2.3415
 3519WAT      O10767   4.715   4.952   2.517 -0.5908  0.0168  0.4638
 3519WAT     H110768   4.786   4.978   2.575  0.7907 -1.4661 -0.4808
 3519WAT     H210769   4.665   4.887   2.567  0.4500 -1.0717  0.1395
 3520WAT      O10770   2.763   2.803   0.363  1.0170  0.2632 -0.1556
 3520WAT     H110771   2.688   2.757   0.399  0.9515  0.1653 -0.4144
 3520WAT     H210772   2.789   2.751   0.287  1.8692 -0.1738  0.4110
 3521WAT      O10773   3.911   4.409   2.682  0.0367  0.4262  0.1189
 3521WAT     H110774   3.834   4.464   2.680 -0.4718 -0.2142  1.2171
 3521WAT     H210775   3.964   4.443   2.755 -0.1007 -0.2726  0.5597
 3522WAT      O10776   2.811   1.809   0.204  0.5743  0.0688  0.1952
 3522WAT     H110777   2.738   1.856   0.245  0.2582 -0.8344  0.6711
 3522WAT     H210778   2.769   1.748   0.144  1.0230  1.3816 -1.5444
 3523WAT      O10779   1.569   4.206   1.430  0.6535 -0.5026 -0.4279
 3523WAT     H110780   1.613   4.154   1.497  2.1052 -1.0252 -1.7116
 3523WAT     H210781   1.479   4.175   1.430  0.6697 -0.6195  1.1276
 3524WAT      O10782   2.962   0.352   5.351 -0.6371  0.1946  0.3325
 3524WAT     H110783   2.982   0.419   5.416  1.2953  1.4927 -1.4586
 3524WAT     H210784   2.889   0.389   5.301  0.5534  1.1581 -0.7806
 3525WAT      O10785   1.780   2.902   2.359  0.0226 -0.3008 -0.1825
 3525WAT     H110786   1.832   2.982   2.368 -0.5523  0.2717 -1.6161
 3525WAT     H210787   1.701   2.930   2.314 -0.3463 -1.6222 -0.4012
 3526WAT      O10788   1.361   3.026   2.060  0.1490  0.1917 -0.2757
 3526WAT     H110789   1.331   2.980   2.138  0.6565  1.0049  0.4219
 3526WAT     H210790   1.289   3.084   2.036  0.5740  1.1082  0.5606
 3527WAT      O10791   1.448   0.430   3.326  0.6926 -0.1533 -0.0614
 3527WAT     H110792   1.359   0.450   3.295  0.7560  0.6181  0.2281
 3527WAT     H210793   1.493   0.398   3.248  0.4776  0.5343 -0.4790
 3528WAT      O10794   1.765   3.531   0.125  0.2906  0.4935 -0.3666
 3528WAT     H110795   1.685   3.482   0.107  0.4752  0.3419 -0.7816
 3528WAT     H210796   1.833   3.483   0.079  0.8707 -0.1753  1.1058
 3529WAT      O10797   1.732   5.048   1.137  0.2137  0.2531 -0.0088
 3529WAT     H110798   1.756   5.137   1.110  1.9863 -0.2960 -0.3754
 3529WAT     H210799   1.760   4.993   1.063 -2.8160 -0.4570 -0.7779
 3530WAT      O10800   0.176   2.217   2.974  0.1094 -0.0800  0.3531
 3530WAT     H110801   0.107   2.154   2.992 -0.3578  0.6630  1.2257
 3530WAT     H210802   0.172   2.230   2.879 -1.1295  0.1541  0.4288
 3531WAT      O10803   0.842   2.283   4.581  0.1278  0.4441 -0.3452
 3531WAT     H110804   0.793   2.365   4.575 -0.4027  0.0275 -3.1977
 3531WAT     H210805   0.776   2.215   4.579  0.6060 -0.1015  1.2257
 3532WAT      O10806   1.921   2.060   2.075  0.2152 -0.3738  0.2497
 3532WAT     H110807   1.838   2.037   2.033 -0.3679  0.9618  0.6147
 3532WAT     H210808   1.909   2.034   2.166  0.2170 -0.2524  0.2854
 3533WAT      O10809   2.801   0.536   2.248  0.1822 -0.5541 -0.2946
 3533WAT     H110810   2.785   0.484   2.326  1.5624  0.5696  0.7734
 3533WAT     H210811   2.883   0.582   2.265  0.5496 -0.2967 -2.4259
 3534WAT      O10812   0.240   1.234   3.448 -0.2790  0.5310  0.4167
 3534WAT     H110813   0.149   1.230   3.477 -0.6273  0.8209 -0.5817
 3534WAT     H210814   0.241   1.302   3.380  0.7306  0.7136  0.5882
 3535WAT      O10815   0.852   4.277   0.923 -0.1283  0.0896 -0.3513
 3535WAT     H110816   0.785   4.226   0.968 -0.6256  0.4987 -0.6250
 3535WAT     H210817   0.827   4.274   0.831  0.4247 -0.0463 -0.5007
 3536WAT      O10818   1.898   1.473   2.288 -0.1045  0.0656  0.1362
 3536WAT     H110819   1.843   1.422   2.347  0.8903  0.7132  1.6639
 3536WAT     H210820   1.874   1.441   2.200 -0.4892 -2.0359  0.9506
 3537WAT      O10821   1.033   3.607   0.033  0.3654  0.2736  0.1687
 3537WAT     H110822   1.112   3.599   0.087  1.1165  1.0037 -0.7888
 3537WAT     H210823   0.996   3.692   0.058  1.0441  0.8872 -0.8721
 3538WAT      O10824   2.914   5.015   1.894 -0.0569 -0.1040 -0.2992
 3538WAT     H110825   2.864   4.968   1.827 -2.3017  0.4899  0.8367
 3538WAT     H210826   2.877   5.104   1.893  0.1571  0.0444  1.3698
 3539WAT      O10827   1.221   2.617   4.587  0.0663  0.1855 -0.0574
 3539WAT     H110828   1.211   2.712   4.582 -0.1743  0.1721  0.1248
 3539WAT     H210829   1.147   2.588   4.641 -0.9632 -0.3014 -1.6588
 3540WAT      O10830   1.601   4.700   0.510 -0.1185  0.4142  0.3615
 3540WAT     H110831   1.584   4.754   0.587  2.7802  0.1244  1.3141
 3540WAT     H210832   1.601   4.610   0.543  2.9205  0.3764  0.5446
 3541WAT      O10833   0.517   4.678   1.999  0.4592 -0.7477  0.0313
 3541WAT     H110834   0.499   4.746   2.064  0.0330 -0.8322  0.0032
 3541WAT     H210835   0.606   4.696   1.970 -0.3129  1.0237 -1.4220
 3542WAT      O10836   0.441   4.908   4.591 -0.3745 -0.2823  0.4166
 3542WAT     H110837   0.423   4.820   4.623 -1.0161 -0.4212 -0.2926
 3542WAT     H210838   0.417   4.905   4.498 -0.1472  0.5630  0.3182
 3543WAT      O10839   1.962   4.338   1.442 -0.3635 -0.4488  0.1781
 3543WAT     H110840   1.872   4.348   1.475 -0.0876 -0.1442  0.8561
 3543WAT     H210841   1.978   4.418   1.393 -0.8581 -1.0044 -0.9391
 3544WAT      O10842   4.491   4.404   4.027  0.2065 -0.9421  0.4518
 3544WAT     H110843   4.535   4.456   4.095  0.3886 -0.4100 -0.0707
 3544WAT     H210844   4.478   4.465   3.955  2.1554 -2.0691 -0.9297
 3545WAT      O10845   0.656   0.297   1.628  0.2376 -0.1023 -0.2001
 3545WAT     H110846   0.654   0.375   1.572 -2.5422 -1.2828 -1.9943
 3545WAT     H210847   0.749   0.279   1.640  0.9917  1.3765 -2.8550
 3546WAT      O10848   3.918   3.046   2.964  0.4527 -0.4882 -0.1763
 3546WAT     H110849   3.824   3.031   2.966  0.5378 -1.3432 -1.4842
 3546WAT     H210850   3.954   2.988   3.031 -0.0738  1.2758  1.7554
 3547WAT      O10851   1.966   4.378   0.757  0.0727  0.4574  0.3290
 3547WAT     H110852   1.951   4.353   0.666 -0.8104  2.0004  0.0126
 3547WAT     H210853   2.056   4.352   0.775  0.2559  0.1118 -0.9782
 3548WAT      O10854   1.257   1.381   2.700  0.1532 -0.0879  0.0339
 3548WAT     H110855   1.216   1.455   2.656  1.2671  0.4391 -0.1497
 3548WAT     H210856   1.269   1.315   2.631  0.9760  0.3467 -0.2521
 3549WAT      O10857   2.479   5.594   1.020  0.1819  0.6260 -0.3627
 3549WAT     H110858   2.547   5.583   0.954  1.7097  3.2549  0.6010
 3549WAT     H210859   2.484   5.515   1.074  0.3848 -0.5605 -2.0546
 3550WAT      O10860   3.178   0.112   0.445  0.4850  0.3497  0.1683
 3550WAT     H110861   3.124   0.077   0.375 -1.2208  1.1876  1.0106
 3550WAT     H210862   3.262   0.131   0.403 -0.1655 -0.0938 -1.4023
 3551WAT      O10863   3.719   4.739   0.497 -0.2450 -0.4768  0.2445
 3551WAT     H110864   3.812   4.745   0.474 -0.7661 -0.4952 -2.1242
 3551WAT     H210865   3.705   4.812   0.558  0.8014  1.2557 -1.4519
 3552WAT      O10866   1.440   2.736   5.566 -0.1436 -0.1894 -0.5814
 3552WAT     H110867   1.519   2.788   5.551 -0.5003  0.5924  0.1431
 3552WAT     H210868   1.417   2.701   5.480  0.4269  0.3939 -0.9831
 3553WAT      O10869   4.721   2.203   3.927  0.7464  0.0822  0.1450
 3553WAT     H110870   4.737   2.269   3.859  1.4720 -0.0979  0.1382
 3553WAT     H210871   4.675   2.251   3.996  0.6769  0.4402 -0.1412
 3554WAT      O10872   1.794   2.787   0.761 -0.0362 -0.4553  0.1751
 3554WAT     H110873   1.755   2.728   0.825 -0.4834  0.5441  0.8346
 3554WAT     H210874   1.749   2.871   0.774  2.0935  0.6702  0.7760
 3555WAT      O10875   2.478   4.705   0.138 -0.3503 -0.1819  0.0627
 3555WAT     H110876   2.562   4.661   0.139  0.8498  1.9842 -0.0822
 3555WAT     H210877   2.481   4.766   0.211 -0.9561  1.3585 -1.1384
 3556WAT      O10878   1.205   5.048   2.648  1.1438  0.1681 -0.1928
 3556WAT     H110879   1.264   4.989   2.601 -0.4503 -0.8528 -1.0336
 3556WAT     H210880   1.174   4.996   2.723  1.4039  0.7198  0.2939
 3557WAT      O10881   4.046   3.131   3.338 -0.7858 -0.8698  0.1661
 3557WAT     H110882   3.983   3.106   3.271 -0.2501 -2.7705  0.3291
 3557WAT     H210883   4.001   3.112   3.421 -0.1274 -1.9939  0.2840
 3558WAT      O10884   2.665   5.215   5.301 -0.1215  0.1201 -0.0592
 3558WAT     H110885   2.741   5.157   5.299 -0.0800  0.1822 -1.8641
 3558WAT     H210886   2.703   5.303   5.302 -0.1942  0.1532  0.4255
 3559WAT      O10887   4.085   5.266   3.702 -0.0268 -0.0985 -0.6027
 3559WAT     H110888   4.080   5.193   3.764  1.1058 -1.0847 -1.6223
 3559WAT     H210889   4.124   5.337   3.753  3.1161 -1.5857 -0.6450
 3560WAT      O10890   2.306   4.902   0.048  0.2562  0.3879 -0.5236
 3560WAT     H110891   2.369   4.831   0.054 -0.5918 -0.2598  1.2620
 3560WAT     H210892   2.238   4.868  -0.012 -1.1822 -1.2365  1.8476
 3561WAT      O10893   1.306   3.562   1.811 -0.1689  0.1090 -0.3394
 3561WAT     H110894   1.307   3.580   1.905  0.6641  0.9110 -0.4951
 3561WAT     H210895   1.219   3.527   1.795 -0.5657  0.6179  0.6135
 3562WAT      O10896   0.786   3.297   4.785  0.2313  0.0392  0.3741
 3562WAT     H110897   0.835   3.278   4.865  2.6474 -0.2427 -1.0804
 3562WAT     H210898   0.832   3.372   4.746 -0.7522  0.0336 -0.8599
 3563WAT      O10899   2.443   0.417   1.843  0.3370 -0.4732 -0.2399
 3563WAT     H110900   2.414   0.475   1.773  1.8862  0.0141 -0.5232
 3563WAT     H210901   2.484   0.343   1.798  0.6034 -0.5575  0.1354
 3564WAT      O10902   0.803   2.185   3.010  0.3638  0.5440  0.1276
 3564WAT     H110903   0.724   2.173   3.062  0.3148 -0.4341 -0.1565
 3564WAT     H210904   0.807   2.107   2.955  0.8832  1.1508 -0.7111
 3565WAT      O10905   2.281   5.027   0.757 -0.1770  0.5624  0.1052
 3565WAT     H110906   2.318   4.957   0.704  0.0783 -0.0573  1.0854
 3565WAT     H210907   2.192   5.039   0.723 -0.3326 -0.4517  0.1436
 3566WAT      O10908   1.223   4.298   1.113 -0.0862  0.1712  0.1999
 3566WAT     H110909   1.261   4.211   1.122 -1.6706 -0.4750  1.0221
 3566WAT     H210910   1.288   4.357   1.151  0.1223 -0.8903  1.5655
 3567WAT      O10911   2.683   3.091   1.362 -0.6347  0.0671 -0.4413
 3567WAT     H110912   2.695   3.106   1.456  0.5491 -0.4335 -0.4870
 3567WAT     H210913   2.764   3.124   1.322 -0.4206 -1.1880 -1.1086
 3568WAT      O10914   1.824   3.993   4.686 -0.4165 -0.0271  0.0263
 3568WAT     H110915   1.847   3.978   4.594 -1.5770 -0.3873 -0.2184
 3568WAT     H210916   1.813   3.904   4.722  0.0502  0.1110  0.5220
 3569WAT      O10917   0.316   4.354   2.542 -0.5565 -0.0027 -0.0813
 3569WAT     H110918   0.344   4.268   2.511  4.8331  1.1631  0.6548
 3569WAT     H210919   0.310   4.407   2.463  0.0609 -0.1257 -0.2150
 3570WAT      O10920   1.562   1.574   1.961 -0.1065  0.0425  0.2227
 3570WAT     H110921   1.629   1.530   1.910 -0.0436 -0.0506  0.3867
 3570WAT     H210922   1.560   1.528   2.045 -0.5097 -0.0816  0.1492
 3571WAT      O10923   0.855   1.428   2.538 -0.0904  0.8174  0.1988
 3571WAT     H110924   0.923   1.463   2.481  0.8421  0.2909  0.9599
 3571WAT     H210925   0.900   1.364   2.593 -1.2405  0.3184  0.5918
 3572WAT      O10926   0.626   3.929   4.384  0.3079 -0.1787  0.5322
 3572WAT     H110927   0.709   3.882   4.383 -0.3615 -1.4176 -0.2241
 3572WAT     H210928   0.603   3.935   4.477  1.2210  0.1517  0.7398
 3573WAT      O10929   1.040   2.559   0.987  0.2361  0.1087  0.5108
 3573WAT     H110930   0.976   2.630   0.991  0.0647 -0.0878  1.5903
 3573WAT     H210931   1.069   2.548   1.078  2.6763  0.9663 -0.0868
 3574WAT      O10932   1.349   2.651   5.809  0.2405 -0.0468  0.0440
 3574WAT     H110933   1.255   2.647   5.823  0.5917  0.1140  2.9940
 3574WAT     H210934   1.359   2.684   5.720 -2.4668  0.9460  0.0369
 3575WAT      O10935   2.475   0.782   1.778 -0.2034  0.0747 -0.0885
 3575WAT     H110936   2.526   0.703   1.797  0.6029  0.4121 -0.7651
 3575WAT     H210937   2.541   0.847   1.752 -0.8172  1.0614  0.7353
 3576WAT      O10938   2.573   2.660   1.905  0.1783 -0.2533  0.0661
 3576WAT     H110939   2.551   2.691   1.817  0.9952  3.4402  0.9991
 3576WAT     H210940   2.490   2.633   1.943 -0.4837 -0.0092 -1.1572
 3577WAT      O10941   1.842   2.725   2.621 -0.2447 -0.2706 -0.2000
 3577WAT     H110942   1.807   2.757   2.538  0.3656  0.0122 -0.3525
 3577WAT     H210943   1.769   2.678   2.661 -0.4585 -0.6544 -1.0265
 3578WAT      O10944   0.610   4.151   3.423 -0.2811 -0.2989  0.7366
 3578WAT     H110945   0.663   4.212   3.475  0.5366 -1.1685  0.9507
 3578WAT     H210946   0.673   4.086   3.391 -1.0295 -0.6575 -0.0458
 3579WAT      O10947   2.542   2.080   2.609 -0.2612  0.0656  0.0277
 3579WAT     H110948   2.563   2.054   2.699 -0.6587  0.4252  0.2247
 3579WAT     H210949   2.586   2.014   2.555 -1.7898 -1.4589  0.5373
 3580WAT      O10950   2.746   3.810   0.531  0.4476  0.5752  0.7613
 3580WAT     H110951   2.766   3.896   0.496  0.2226 -0.4440 -2.1117
 3580WAT     H210952   2.820   3.756   0.505 -0.7095 -0.7030 -0.0024
 3581WAT      O10953   1.801   2.744   2.939  0.5154 -0.5506 -0.0928
 3581WAT     H110954   1.710   2.734   2.912  0.2097 -1.9372  1.3174
 3581WAT     H210955   1.847   2.770   2.859 -1.5701  3.6645 -0.1970
 3582WAT      O10956   2.270   1.875   1.736  0.3432  0.8852 -0.0907
 3582WAT     H110957   2.296   1.939   1.670  1.9533 -0.5625 -0.9812
 3582WAT     H210958   2.189   1.909   1.774  0.7511  3.0230 -1.0297
 3583WAT      O10959   1.481   0.640   4.322 -0.7122 -0.1325 -0.1021
 3583WAT     H110960   1.513   0.710   4.265  0.7279 -0.1500  0.6345
 3583WAT     H210961   1.481   0.562   4.267  1.0437 -0.2322 -0.0086
 3584WAT      O10962   2.731   0.208   0.161  0.1565  0.1212 -0.0980
 3584WAT     H110963   2.698   0.275   0.222  0.0878  0.1092 -0.1220
 3584WAT     H210964   2.674   0.132   0.175 -0.5056  0.4535 -0.8906
 3585WAT      O10965   1.208   0.738   4.383 -0.5597 -0.0987  0.6990
 3585WAT     H110966   1.299   0.708   4.374 -0.3090  0.6466  0.6271
 3585WAT     H210967   1.176   0.743   4.293  0.2855  2.4122  0.4529
 3586WAT      O10968   3.208   4.611   5.768  0.0516 -0.0245 -0.1638
 3586WAT     H110969   3.204   4.707   5.762  0.9881 -0.0568 -1.5780
 3586WAT     H210970   3.299   4.592   5.791 -0.1038 -0.5908  0.0057
 3587WAT      O10971   1.122   5.313   4.747 -0.2787 -0.2669  0.2377
 3587WAT     H110972   1.134   5.298   4.654 -1.6700 -0.4320  0.0595
 3587WAT     H210973   1.054   5.380   4.752 -1.8170 -1.8106  1.1199
 3588WAT      O10974   1.315   5.164   0.991  0.7125 -0.3965 -0.1649
 3588WAT     H110975   1.323   5.114   1.072 -2.4918  0.3431  0.7241
 3588WAT     H210976   1.223   5.187   0.985  1.2260  1.5066 -2.9095
 3589WAT      O10977   0.343   1.214   2.578  0.0811  0.1714 -0.1080
 3589WAT     H110978   0.312   1.164   2.502 -1.2406 -0.0668  0.5641
 3589WAT     H210979   0.417   1.264   2.544  0.9407 -1.6100 -0.9936
 3590WAT      O10980   2.180   0.262   1.683  0.4739  0.0610 -0.6014
 3590WAT     H110981   2.268   0.227   1.669  0.9199  0.5806  0.7637
 3590WAT     H210982   2.194   0.352   1.711 -0.3774 -0.3788  1.4305
 3591WAT      O10983   2.338   4.448   1.878  0.0958  0.0146  0.0181
 3591WAT     H110984   2.339   4.541   1.897  0.4385 -0.0672  0.4063
 3591WAT     H210985   2.380   4.407   1.954 -1.6626 -0.6070  0.7138
 3592WAT      O10986   3.141   2.037   2.403  0.2313 -0.4316  0.5235
 3592WAT     H110987   3.087   2.082   2.338 -1.1419 -1.9610  0.5330
 3592WAT     H210988   3.109   2.069   2.487  2.3011  1.8773  0.5381
 3593WAT      O10989   1.125   4.812   2.382  0.5072  0.2040 -0.8310
 3593WAT     H110990   1.214   4.834   2.411  1.5722 -2.2840 -1.8701
 3593WAT     H210991   1.129   4.816   2.287 -0.3547 -0.3485 -0.9031
 3594WAT      O10992   1.490   2.116   2.597 -0.2712 -0.4392  0.0847
 3594WAT     H110993   1.540   2.153   2.524 -1.0589  0.5898  0.0468
 3594WAT     H210994   1.505   2.022   2.591  1.4717 -0.1866 -0.0634
 3595WAT      O10995   2.420   4.858   0.563  0.1837 -0.0920 -0.3810
 3595WAT     H110996   2.443   4.771   0.531  0.3000  0.1554 -0.9900
 3595WAT     H210997   2.452   4.918   0.495  3.8863  0.7677  1.8354
 3596WAT      O10998   3.449   0.568   2.746 -0.4924 -0.4552  0.1540
 3596WAT     H110999   3.430   0.556   2.653 -0.1720  2.1972 -0.3477
 3596WAT     H211000   3.543   0.587   2.749 -0.6906  0.5132  0.8453
 3597WAT      O11001   2.580   2.723   1.070  0.0255 -0.0554  0.2492
 3597WAT     H111002   2.632   2.723   1.150 -0.2466  0.2541  0.4289
 3597WAT     H211003   2.578   2.814   1.042 -0.3564 -0.0734  0.2065
 3598WAT      O11004   3.409   0.973   2.033  0.0320 -0.7535  0.3146
 3598WAT     H111005   3.491   0.944   2.074  1.8007  2.2249 -0.7909
 3598WAT     H211006   3.345   0.972   2.105  1.1228 -2.5966  1.3465
 3599WAT      O11007   2.266   3.718   3.345 -0.0900 -0.2580 -0.3053
 3599WAT     H111008   2.274   3.675   3.430  0.3155  1.0057  0.3223
 3599WAT     H211009   2.355   3.747   3.324 -0.5950  1.7291  0.1094
 3600WAT      O11010   4.443   1.002   1.799  0.0582 -0.1707 -0.3997
 3600WAT     H111011   4.486   0.930   1.844 -0.3282  0.8288  1.7210
 3600WAT     H211012   4.400   1.051   1.869 -1.8975  0.6382 -2.0666
 3601WAT      O11013   3.677   1.546   2.009 -0.3968 -0.4840  0.8516
 3601WAT     H111014   3.685   1.631   2.051  1.0998  0.0330 -0.3778
 3601WAT     H211015   3.586   1.541   1.979 -0.1434  1.3510 -0.3614
 3602WAT      O11016   2.716   3.333   2.540  0.2006  0.2392  0.7355
 3602WAT     H111017   2.779   3.374   2.600  2.5518  0.0347 -1.4116
 3602WAT     H211018   2.667   3.406   2.504 -0.4288  0.4644  1.9856
 3603WAT      O11019   2.445   2.058   2.316 -0.1990 -0.1446  0.4289
 3603WAT     H111020   2.479   2.091   2.399 -0.2186 -0.7534  0.6906
 3603WAT     H211021   2.492   2.107   2.249 -0.1913  0.3614  0.8042
 3604WAT      O11022   2.829   0.534   0.148  0.1290 -0.4421 -0.1602
 3604WAT     H111023   2.736   0.515   0.145  0.1279 -0.3915 -3.0350
 3604WAT     H211024   2.845   0.563   0.238 -2.9673  1.2904 -0.0448
 3605WAT      O11025   1.493   1.118   2.113  0.3815 -0.1597  0.1724
 3605WAT     H111026   1.543   1.093   2.035  0.6142 -0.8870  0.5424
 3605WAT     H211027   1.419   1.169   2.079  0.4620 -0.4956 -0.5283
 3606WAT      O11028   0.268   1.081   4.204 -0.5550 -0.2856 -0.0876
 3606WAT     H111029   0.246   1.101   4.113  1.3292  0.3384 -0.4518
 3606WAT     H211030   0.331   1.009   4.198  1.1747  1.1024  0.5507
 3607WAT      O11031   4.603   2.232   3.311 -0.1892 -0.0592  0.2751
 3607WAT     H111032   4.693   2.214   3.285  0.4355  0.9776  1.5679
 3607WAT     H211033   4.609   2.314   3.361 -2.1923  1.4279 -1.6883
 3608WAT      O11034   3.142   4.183   0.322  0.7653 -0.7158  0.1199
 3608WAT     H111035   3.238   4.177   0.327  0.7644  0.1514  2.1278
 3608WAT     H211036   3.111   4.108   0.372  0.3613 -1.2918 -0.9659
 3609WAT      O11037   1.430   3.394   4.055  0.2555 -0.4102  0.4959
 3609WAT     H111038   1.466   3.482   4.040  2.0942 -1.3552 -1.0792
 3609WAT     H211039   1.506   3.340   4.075 -0.9019 -1.5904  1.9470
 3610WAT      O11040   1.779   3.478   0.761  0.3192 -0.3444  0.0437
 3610WAT     H111041   1.818   3.560   0.732  0.4458 -0.0651  0.9529
 3610WAT     H211042   1.852   3.415   0.761  0.2995 -0.3672 -0.3114
 3611WAT      O11043   2.591   0.351   4.043  0.4020 -0.0151  0.1019
 3611WAT     H111044   2.630   0.293   4.109  0.0328  0.2941  0.6046
 3611WAT     H211045   2.661   0.365   3.979  0.7728 -0.3156  0.4345
 3612WAT      O11046   2.339   3.116   2.247  0.5127 -0.7107  0.1657
 3612WAT     H111047   2.305   3.116   2.157 -0.1504 -0.1832  0.4114
 3612WAT     H211048   2.425   3.074   2.240 -0.0905 -1.8875 -0.5026
 3613WAT      O11049   0.710   2.718   4.395  0.4983 -0.3861  0.5022
 3613WAT     H111050   0.727   2.661   4.320 -0.1452  1.1172 -0.8244
 3613WAT     H211051   0.781   2.783   4.393  1.3557 -1.1912  2.1370
 3614WAT      O11052   1.140   3.499   4.975  0.5903  0.2745 -0.2911
 3614WAT     H111053   1.051   3.534   4.982  0.9860  1.0554  1.0819
 3614WAT     H211054   1.146   3.436   5.047  0.7013 -0.8384 -1.2474
 3615WAT      O11055   0.710   4.332   3.203 -0.2791  0.4774  0.4891
 3615WAT     H111056   0.762   4.331   3.284  0.4675  0.7869  0.0225
 3615WAT     H211057   0.759   4.389   3.144 -1.8374  1.8307  0.4623
 3616WAT      O11058   2.017   1.446   3.384 -0.1207 -0.0189 -0.1722
 3616WAT     H111059   1.982   1.364   3.419  0.1355 -0.4038 -0.7866
 3616WAT     H211060   2.105   1.424   3.354  0.5181  0.8444  0.9889
 3617WAT      O11061   1.237   0.643   4.901 -0.2404  0.4515 -0.6215
 3617WAT     H111062   1.225   0.558   4.944  1.8698 -0.3811 -1.5226
 3617WAT     H211063   1.232   0.707   4.972 -3.1567 -0.2137 -0.0739
 3618WAT      O11064   2.341   5.553   1.978  0.4662  0.1909 -0.0490
 3618WAT     H111065   2.316   5.645   1.972 -0.6748 -0.1856 -1.5914
 3618WAT     H211066   2.362   5.540   2.071  0.7077  2.0065  0.1781
 3619WAT      O11067   1.865   4.771   5.142 -0.2086  0.7352 -0.4411
 3619WAT     H111068   1.855   4.719   5.222 -0.9994  0.5088 -0.6793
 3619WAT     H211069   1.925   4.719   5.087  0.9082  1.2322  0.2769
 3620WAT      O11070   3.546   5.194   5.095 -0.0070 -0.3126 -0.1829
 3620WAT     H111071   3.603   5.217   5.168 -2.7667 -0.1610  2.1058
 3620WAT     H211072   3.492   5.272   5.081 -0.4557 -0.8230 -1.4992
 3621WAT      O11073   0.663   2.638   2.412  0.2052  0.3955 -1.0427
 3621WAT     H111074   0.726   2.694   2.459  2.3319 -2.6179  0.0657
 3621WAT     H211075   0.701   2.627   2.325  2.4286 -2.7559  0.1166
 3622WAT      O11076   1.034   3.997   4.292  0.3642  0.0542 -0.1196
 3622WAT     H111077   1.034   4.080   4.245 -0.0109 -0.4019 -0.9517
 3622WAT     H211078   1.035   4.021   4.384 -1.4997  1.0284 -0.3042
 3623WAT      O11079   2.724   0.167   3.382 -0.6481 -0.3107  0.6047
 3623WAT     H111080   2.741   0.156   3.288  0.2801 -0.0319  0.7257
 3623WAT     H211081   2.650   0.228   3.386 -1.4705 -1.2375  0.0510
 3624WAT      O11082   3.906   1.145   4.922 -0.3924 -0.1474 -0.3342
 3624WAT     H111083   3.813   1.146   4.946  0.4146 -1.6042  3.4891
 3624WAT     H211084   3.949   1.195   4.992  1.9072 -1.4202 -0.7365
 3625WAT      O11085   1.344   1.159   4.117 -0.2737 -0.0507  0.5675
 3625WAT     H111086   1.429   1.123   4.093 -1.1592 -0.8019 -1.6612
 3625WAT     H211087   1.317   1.210   4.041 -2.1916 -0.5515  0.8725
 3626WAT      O11088   1.969   0.361   3.328 -0.5033  0.1979  0.0773
 3626WAT     H111089   1.896   0.311   3.366 -0.2261 -1.2761 -1.1870
 3626WAT     H211090   1.940   0.452   3.330 -1.3260 -0.0670  1.8602
 3627WAT      O11091   2.854   2.151   0.462  0.4560  0.0762 -0.1742
 3627WAT     H111092   2.803   2.073   0.479  1.7822 -0.4629  1.6684
 3627WAT     H211093   2.835   2.209   0.536  1.5500  0.3610 -0.0978
 3628WAT      O11094   2.327   2.239   3.523 -0.0155  0.3724 -0.3217
 3628WAT     H111095   2.237   2.263   3.542 -0.3084 -0.7525 -0.2166
 3628WAT     H211096   2.320   2.164   3.464  0.8612  1.0711 -1.3576
 3629WAT      O11097   1.604   2.333   4.829  0.0387 -0.1507  0.4671
 3629WAT     H111098   1.535   2.286   4.876 -1.3528  0.8176 -0.5309
 3629WAT     H211099   1.576   2.332   4.738  0.7016  1.3934  0.2232
 3630WAT      O11100   4.589   5.218   2.928  0.1794  0.3828 -0.4451
 3630WAT     H111101   4.600   5.291   2.867 -2.4179  1.5810  0.3658
 3630WAT     H211102   4.524   5.162   2.885 -1.0911  0.8430  0.7931
 3631WAT      O11103   0.348   3.250   5.072 -0.0705 -0.1008  0.0248
 3631WAT     H111104   0.266   3.241   5.121  0.0416 -1.8435 -0.0255
 3631WAT     H211105   0.328   3.313   5.003 -1.4778 -0.7381 -0.1785
 3632WAT      O11106   2.339   2.418   5.474  0.2780  0.0195 -0.1363
 3632WAT     H111107   2.432   2.407   5.492 -0.1790 -2.9356  1.0774
 3632WAT     H211108   2.336   2.447   5.383  2.3789  3.1394  0.6600
 3633WAT      O11109   1.887   1.499   0.512  0.4758 -0.1676 -0.4683
 3633WAT     H111110   1.830   1.435   0.470 -1.4677  0.3984  1.2147
 3633WAT     H211111   1.965   1.449   0.537 -0.6349 -1.6840  0.0447
 3634WAT      O11112   2.104   1.416   4.867 -0.0450  0.2126  0.1203
 3634WAT     H111113   2.164   1.478   4.908  0.3940  0.2998 -0.6261
 3634WAT     H211114   2.118   1.334   4.913 -0.7698  0.7027  1.2518
 3635WAT      O11115   1.237   0.635   4.025 -0.1590  0.2023  0.1598
 3635WAT     H111116   1.312   0.610   3.971 -1.1474  0.4045 -1.3934
 3635WAT     H211117   1.251   0.728   4.045 -0.6031  0.5954 -1.2407
 3636WAT      O11118   0.266   2.883   4.452 -0.4823  0.3826  0.4311
 3636WAT     H111119   0.358   2.865   4.468 -0.0572 -0.6281 -2.6034
 3636WAT     H211120   0.245   2.836   4.371 -3.4356  1.3201  0.5060
 3637WAT      O11121   4.480   5.058   3.920 -0.4292 -0.4858 -1.1694
 3637WAT     H111122   4.455   5.145   3.889 -0.3692  0.4721  1.2617
 3637WAT     H211123   4.575   5.060   3.923 -0.4467 -0.4379 -0.5982
 3638WAT      O11124   0.893   3.368   4.371  0.2712 -0.3870 -0.0522
 3638WAT     H111125   0.812   3.344   4.327  1.3776 -2.0431 -1.3056
 3638WAT     H211126   0.945   3.412   4.304  1.2207 -1.2315  0.0956
 3639WAT      O11127   2.306   2.085   4.821 -0.7955  0.4136 -0.1921
 3639WAT     H111128   2.237   2.146   4.796 -0.5833  0.1602 -1.4961
 3639WAT     H211129   2.356   2.071   4.740  0.7317  0.5295  0.6841
 3640WAT      O11130   2.309   1.594   4.937 -0.4763 -0.1975  0.7087
 3640WAT     H111131   2.389   1.577   4.987 -0.1591  1.9655  1.0598
 3640WAT     H211132   2.338   1.595   4.846  0.1188  1.3083  0.8716
 3641WAT      O11133   1.536   1.396   2.777  0.5544 -0.5844 -0.1937
 3641WAT     H111134   1.448   1.421   2.748  0.4151  0.1929  0.8450
 3641WAT     H211135   1.521   1.320   2.834  0.6068 -0.7443 -0.3923
 3642WAT      O11136   3.316   5.094   4.591  0.3738 -0.2322  0.4480
 3642WAT     H111137   3.320   5.139   4.675 -0.8034  1.1652 -0.2035
 3642WAT     H211138   3.391   5.127   4.542  0.9967 -0.9636  0.8821
 3643WAT      O11139   4.347   2.330   3.021  0.1045  0.1940  0.3452
 3643WAT     H111140   4.378   2.246   2.987 -0.9225  0.4469 -1.3116
 3643WAT     H211141   4.336   2.385   2.944 -0.8237  1.3209  1.2382
 3644WAT      O11142   3.961   4.255   3.558 -0.1471  0.6495  0.2344
 3644WAT     H111143   3.960   4.339   3.604 -0.4525 -0.0557  1.5522
 3644WAT     H211144   4.049   4.250   3.520  0.6938  0.5497  2.1089
 3645WAT      O11145   1.975   5.578   5.183 -0.1073 -0.0990  0.0341
 3645WAT     H111146   1.897   5.596   5.130  1.2398  0.0466 -2.0255
 3645WAT     H211147   1.991   5.485   5.170  0.2385 -0.0604  0.1925
 3646WAT      O11148   4.892   2.759   3.765  0.3497  0.8351 -0.2513
 3646WAT     H111149   4.926   2.848   3.776  1.3582  0.6770 -1.9111
 3646WAT     H211150   4.849   2.760   3.679  1.7692 -0.6850 -1.0309
 3647WAT      O11151   4.782   1.822   4.446 -0.4333  0.1424 -0.1805
 3647WAT     H111152   4.871   1.838   4.415 -0.7721  0.7344 -0.9136
 3647WAT     H211153   4.726   1.856   4.375 -1.2412 -1.4293 -0.3419
 3648WAT      O11154   4.235   2.937   2.382 -0.1008 -0.3785  0.1443
 3648WAT     H111155   4.245   2.949   2.477  1.3534 -0.8365  0.0772
 3648WAT     H211156   4.233   2.842   2.370 -1.7639 -0.3309 -0.1771
 3649WAT      O11157   3.636   1.362   4.945  0.1990 -0.4585  0.1377
 3649WAT     H111158   3.661   1.280   4.901 -2.7833 -0.4764 -1.8428
 3649WAT     H211159   3.588   1.333   5.023  0.7727 -0.5411  0.4647
 3650WAT      O11160   1.581   3.722   3.375  0.1690  0.0632  0.7429
 3650WAT     H111161   1.593   3.627   3.380 -0.3036 -0.0500 -0.0236
 3650WAT     H211162   1.660   3.755   3.334  0.0791 -0.0730  0.4584
 3651WAT      O11163   3.887   4.535   3.974 -0.2516 -0.2438  0.1981
 3651WAT     H111164   3.873   4.620   4.015  1.0016  0.0922 -0.0265
 3651WAT     H211165   3.812   4.523   3.916 -1.2471 -0.0222  1.4013
 3652WAT      O11166   2.493   2.603   4.991  0.0799 -0.2167 -0.2892
 3652WAT     H111167   2.546   2.557   4.925  0.3293  1.1564 -1.0751
 3652WAT     H211168   2.470   2.686   4.949  0.7140  0.9495  1.5684
 3653WAT      O11169   1.410   5.326   1.619 -0.5431 -0.0227  0.7291
 3653WAT     H111170   1.491   5.277   1.633 -1.5287 -1.7768  0.4932
 3653WAT     H211171   1.341   5.267   1.648 -1.7544  1.4905  1.0284
 3654WAT      O11172   1.848   3.182   0.115 -0.0338 -0.0889 -0.0906
 3654WAT     H111173   1.753   3.194   0.104  0.0046 -0.1927 -0.5644
 3654WAT     H211174   1.887   3.254   0.065  0.1649 -1.0394 -1.3348
 3655WAT      O11175   1.839   4.638   1.099  0.5589  0.2660  0.1715
 3655WAT     H111176   1.849   4.676   1.012 -1.3710  2.4327  0.8042
 3655WAT     H211177   1.879   4.703   1.158  0.5975 -0.5100  1.0226
 3656WAT      O11178   1.162   0.805   1.984 -0.1185 -0.3741 -0.4450
 3656WAT     H111179   1.232   0.764   2.033  0.4930 -0.4610 -1.3708
 3656WAT     H211180   1.111   0.852   2.050  1.8442  1.2017  0.0612
 3657WAT      O11181   2.238   1.168   4.343 -0.3713 -0.0295  0.7589
 3657WAT     H111182   2.319   1.170   4.394  0.3660  0.4131 -0.3891
 3657WAT     H211183   2.233   1.078   4.311 -0.1804  0.0224  0.5843
 3658WAT      O11184   4.152   2.571   3.965 -0.4540 -0.0567 -0.1055
 3658WAT     H111185   4.123   2.572   3.874 -2.0336  0.4429  0.3640
 3658WAT     H211186   4.123   2.487   3.999 -0.3911 -0.0021  0.0867
 3659WAT      O11187   3.005   0.667   1.632  0.5345 -0.0652 -0.1793
 3659WAT     H111188   3.036   0.756   1.612  1.5084 -0.4530 -0.4136
 3659WAT     H211189   2.971   0.674   1.721  0.6808  0.5253 -0.1602
 3660WAT      O11190   1.234   1.218   2.462  0.5914  0.7205  0.0497
 3660WAT     H111191   1.210   1.139   2.511  2.3860 -0.2400 -0.5175
 3660WAT     H211192   1.203   1.201   2.373  0.6086  0.8346  0.0222
 3661WAT      O11193   1.544   0.156   3.775 -0.4216  0.6211 -0.4641
 3661WAT     H111194   1.533   0.071   3.732 -1.1848  0.5733 -0.1858
 3661WAT     H211195   1.520   0.140   3.866 -0.6127  1.1474 -0.4197
 3662WAT      O11196   3.283   0.594   3.720  0.3295 -0.1787 -0.3034
 3662WAT     H111197   3.239   0.652   3.782  1.7691 -0.7608  1.3481
 3662WAT     H211198   3.335   0.654   3.666  0.8480  0.1945  0.5800
 3663WAT      O11199   4.685   0.341   2.774  0.0421  0.2409  0.5019
 3663WAT     H111200   4.728   0.423   2.752 -0.1308 -0.1983 -1.6019
 3663WAT     H211201   4.748   0.273   2.751 -0.3723 -0.2727  0.8594
 3664WAT      O11202   1.662   2.431   1.905  0.0070  0.0331 -0.4782
 3664WAT     H111203   1.756   2.428   1.888 -0.0770  0.0016 -0.9498
 3664WAT     H211204   1.634   2.340   1.897 -0.1844  0.1395 -1.0455
 3665WAT      O11205   2.897   2.399   0.042 -0.1744  0.1868  0.1357
 3665WAT     H111206   2.936   2.321   0.082  0.8061  0.7104  0.2275
 3665WAT     H211207   2.928   2.398  -0.049  0.1442  0.6617  0.2358
 3666WAT      O11208   2.821   0.496   2.521  0.1349 -0.2234 -0.6493
 3666WAT     H111209   2.831   0.528   2.610 -3.8471 -0.7865  0.1631
 3666WAT     H211210   2.906   0.455   2.500  0.8225 -1.2033  3.3295
 3667WAT      O11211   1.852   0.280   4.085  0.1494 -0.3492 -0.2938
 3667WAT     H111212   1.793   0.209   4.060  0.0204 -0.6644  0.8265
 3667WAT     H211213   1.929   0.236   4.121  0.9076  0.0668 -1.3585
 3668WAT      O11214   4.591   4.766   4.358  0.4916 -0.2297  0.2661
 3668WAT     H111215   4.585   4.793   4.266 -1.0309  0.5804  0.5794
 3668WAT     H211216   4.554   4.839   4.407 -0.4989 -1.4384  1.3983
 3669WAT      O11217   0.530   5.629   3.520  0.4096  0.6555  0.0563
 3669WAT     H111218   0.618   5.603   3.493 -0.4025  1.0035 -3.3783
 3669WAT     H211219   0.532   5.725   3.518 -0.3590  0.6677 -1.4373
 3670WAT      O11220   2.993   0.293   3.740 -0.2803  0.3788 -0.0574
 3670WAT     H111221   2.940   0.214   3.728  0.1427 -0.0487  0.7915
 3670WAT     H211222   3.080   0.268   3.708 -0.3344  0.7581 -0.5109
 3671WAT      O11223   3.142   1.163   5.553  0.6636 -0.1798 -0.2654
 3671WAT     H111224   3.172   1.122   5.634  1.1591  0.4652 -0.1109
 3671WAT     H211225   3.047   1.165   5.562  0.7849  2.1180  1.4685
 3672WAT      O11226   2.184   5.665   1.076  0.2538 -0.1500  0.0496
 3672WAT     H111227   2.264   5.619   1.104  1.5546  2.1458  0.3570
 3672WAT     H211228   2.123   5.652   1.148  1.8757  1.5884  1.8496
 3673WAT      O11229   2.632   1.692   5.782  0.4567  0.0504  0.5725
 3673WAT     H111230   2.692   1.712   5.710 -0.5723 -0.2932 -0.4058
 3673WAT     H211231   2.551   1.735   5.758 -0.9004 -2.6370 -0.1004
 3674WAT      O11232   2.117   0.262   2.515  0.2601  0.0224 -0.1855
 3674WAT     H111233   2.199   0.217   2.494  0.6404  1.5753 -2.3177
 3674WAT     H211234   2.140   0.355   2.514 -0.8834  0.4072  2.3746
 3675WAT      O11235   1.234   5.535   4.277 -0.6346  0.2011  0.4264
 3675WAT     H111236   1.323   5.511   4.250 -0.4841  0.7487  0.4237
 3675WAT     H211237   1.210   5.608   4.219 -2.1993 -1.7481 -1.5348
 3676WAT      O11238   1.220   2.006   4.743  0.0675 -0.2096  0.3665
 3676WAT     H111239   1.197   2.067   4.673  1.5431 -0.5665 -0.4753
 3676WAT     H211240   1.239   1.924   4.697  0.9441 -0.4818  1.1825
 3677WAT      O11241   4.895   5.606   3.665 -0.3416 -0.4307 -0.3389
 3677WAT     H111242   4.930   5.648   3.744  0.9699  0.0483 -1.1535
 3677WAT     H211243   4.807   5.643   3.655  0.2594  1.0687 -0.2651
 3678WAT      O11244   3.504   3.914   3.845 -0.2404  0.6200 -0.2736
 3678WAT     H111245   3.506   3.867   3.928 -0.3313  0.6780 -0.2383
 3678WAT     H211246   3.413   3.943   3.835 -0.2044  0.7158 -0.3351
 3679WAT      O11247   3.339   2.532   5.082 -0.3997 -0.1764 -0.5117
 3679WAT     H111248   3.316   2.447   5.119  1.4996 -0.6044 -0.2023
 3679WAT     H211249   3.357   2.514   4.990 -0.0319 -0.0941 -0.4551
 3680WAT      O11250   4.360   0.217   2.881  0.1558 -0.0911  0.4308
 3680WAT     H111251   4.380   0.134   2.925 -0.1012  0.2716  1.2524
 3680WAT     H211252   4.274   0.243   2.916 -1.4572 -1.1850 -2.3530
 3681WAT      O11253   2.425   4.292   2.509 -0.1162 -0.4328 -0.2616
 3681WAT     H111254   2.504   4.257   2.548 -0.8932 -2.3636 -0.3201
 3681WAT     H211255   2.395   4.359   2.571  0.6136 -0.8992  0.6123
 3682WAT      O11256   3.480   2.219   4.530 -0.3264 -0.5209  0.1040
 3682WAT     H111257   3.521   2.265   4.604 -0.9665  1.2632 -0.5821
 3682WAT     H211258   3.516   2.131   4.534  3.2301  0.7249 -0.0984
 3683WAT      O11259   0.199   5.482   3.099 -0.1658  0.2419  0.7834
 3683WAT     H111260   0.266   5.523   3.155  0.1187 -0.4426  0.9516
 3683WAT     H211261   0.120   5.481   3.153  0.1147 -0.4392  1.1935
 3684WAT      O11262   1.288   3.253   4.359 -0.3929 -0.2692 -0.1480
 3684WAT     H111263   1.341   3.303   4.421  2.3065 -1.4738 -1.2948
 3684WAT     H211264   1.218   3.215   4.412 -0.5025  1.8826  1.3578
 3685WAT      O11265   1.054   4.169   5.056 -0.0362  0.3797 -0.1039
 3685WAT     H111266   1.085   4.150   5.144 -2.1837 -3.2464  0.0843
 3685WAT     H211267   1.133   4.164   5.001  0.8157 -1.2322  1.1734
 3686WAT      O11268   1.936   3.821   0.329 -0.2931 -0.6003 -0.2013
 3686WAT     H111269   1.970   3.741   0.369 -0.8008 -0.3657  0.7217
 3686WAT     H211270   1.925   3.882   0.402 -1.1734 -0.1371 -0.7037
 3687WAT      O11271   3.458   2.568   1.866  0.3882 -0.0353 -0.0246
 3687WAT     H111272   3.538   2.580   1.815  0.6402  0.8529  0.5629
 3687WAT     H211273   3.485   2.514   1.940  0.6289  0.8709  0.5677
 3688WAT      O11274   0.104   3.823   2.993  0.4268  0.0091  0.5419
 3688WAT     H111275   0.079   3.908   2.957  0.0152 -0.5291 -0.4695
 3688WAT     H211276   0.095   3.762   2.920  1.7110 -0.7416  0.9762
 3689WAT      O11277   0.695   0.459   3.650  0.1715  0.4514 -0.0251
 3689WAT     H111278   0.618   0.516   3.660  0.0775  0.4822 -0.8590
 3689WAT     H211279   0.720   0.438   3.740 -1.1696 -0.0501  0.2664
 3690WAT      O11280   4.774   1.896   3.447  0.3629 -0.5597  0.3486
 3690WAT     H111281   4.803   1.979   3.484 -0.1012 -0.9774  1.6940
 3690WAT     H211282   4.691   1.916   3.404  1.2955  0.0949 -1.2530
 3691WAT      O11283   1.019   3.580   2.006 -0.3946  0.5176  0.1600
 3691WAT     H111284   0.986   3.511   2.062  0.3291 -0.9811 -1.1909
 3691WAT     H211285   1.035   3.654   2.065 -4.1617  0.7139  1.1760
 3692WAT      O11286   3.539   3.632   0.561  0.9399 -0.1270  0.5029
 3692WAT     H111287   3.528   3.579   0.640 -0.7194  1.3948  1.3455
 3692WAT     H211288   3.511   3.575   0.490 -1.5172 -0.2198  1.4638
 3693WAT      O11289   0.727   1.656   4.354 -0.6696 -0.5764  0.1846
 3693WAT     H111290   0.732   1.738   4.304 -3.0144  1.4682  2.9449
 3693WAT     H211291   0.633   1.641   4.367 -0.2535 -3.0444  0.8468
 3694WAT      O11292   2.268   3.310   4.410  0.3636 -0.1050 -0.9553
 3694WAT     H111293   2.309   3.378   4.464 -1.1121  0.8346 -0.9417
 3694WAT     H211294   2.274   3.344   4.321 -1.2104  0.5567 -0.8521
 3695WAT      O11295   1.295   0.870   3.838 -0.5008 -0.0462 -0.0550
 3695WAT     H111296   1.216   0.887   3.786 -0.6228  0.9720  0.4343
 3695WAT     H211297   1.267   0.885   3.929  0.1175 -0.2395  0.1741
 3696WAT      O11298   1.337   4.004   1.205  0.4423 -0.4335 -0.3607
 3696WAT     H111299   1.373   3.996   1.117 -1.9021  0.7368 -1.5030
 3696WAT     H211300   1.251   3.962   1.200 -0.1029  0.4213  1.1335
 3697WAT      O11301   3.362   2.903   4.502 -0.4951  0.1157 -0.7602
 3697WAT     H111302   3.349   2.929   4.593  0.2581 -0.6067 -0.4342
 3697WAT     H211303   3.274   2.900   4.465 -0.8361  0.0743  0.0359
 3698WAT      O11304   2.717   3.503   0.044 -0.0124 -0.7294 -0.7164
 3698WAT     H111305   2.725   3.596   0.066 -0.4657 -1.0309  0.8465
 3698WAT     H211306   2.642   3.499  -0.015 -0.1154 -0.1254 -0.6346
 3699WAT      O11307   1.971   2.407   5.376 -0.3474 -0.4225 -0.4668
 3699WAT     H111308   1.880   2.389   5.401 -0.3000 -0.8750 -0.5988
 3699WAT     H211309   2.023   2.355   5.437 -0.2098 -0.9211 -0.9955
 3700WAT      O11310   3.409   4.401   4.452  0.1734 -0.9466  0.1652
 3700WAT     H111311   3.472   4.408   4.381  1.4194 -0.5659  1.2695
 3700WAT     H211312   3.452   4.441   4.527 -0.8059 -1.9791  1.3369
 3701WAT      O11313   4.539   2.947   4.232 -0.2358 -0.0343 -0.5093
 3701WAT     H111314   4.467   3.005   4.207  1.2388  2.1784  0.0844
 3701WAT     H211315   4.613   2.977   4.179  0.8855 -0.5477  0.7325
 3702WAT      O11316   3.393   3.741   5.279 -0.4001  0.0535 -0.3888
 3702WAT     H111317   3.476   3.723   5.234  1.8146  0.4808  3.1829
 3702WAT     H211318   3.393   3.682   5.354 -2.7557  0.9992  0.4482
 3703WAT      O11319   2.437   1.844   5.418 -0.0634 -0.1623  0.3605
 3703WAT     H111320   2.507   1.781   5.399  0.7874  1.0724 -0.7385
 3703WAT     H211321   2.435   1.848   5.514  0.7081 -0.9380  0.4267
 3704WAT      O11322   2.012   1.513   5.250 -0.7023 -0.4505 -0.1782
 3704WAT     H111323   2.104   1.487   5.254 -0.6134 -0.3946 -1.6195
 3704WAT     H211324   2.011   1.595   5.201 -1.4546 -0.0058  0.5347
 3705WAT      O11325   1.339   0.624   1.818  0.1045  0.6906  0.1444
 3705WAT     H111326   1.274   0.679   1.863  0.0473 -0.3240  1.3527
 3705WAT     H211327   1.408   0.612   1.882 -0.1111 -1.0420  0.0971
 3706WAT      O11328   2.301   0.619   3.054  0.2179 -0.4787 -0.7873
 3706WAT     H111329   2.209   0.644   3.039 -0.2730 -2.4581 -1.4081
 3706WAT     H211330   2.350   0.699   3.037 -1.3504  0.4978 -0.9902
 3707WAT      O11331   0.591   1.922   3.977  0.5774 -0.1699  0.6786
 3707WAT     H111332   0.511   1.871   3.968  0.5903 -0.3457  1.5337
 3707WAT     H211333   0.568   2.009   3.945  0.1690 -0.3391  0.5145
 3708WAT      O11334   2.478   3.304   1.325 -0.6204 -0.2400  0.4098
 3708WAT     H111335   2.526   3.224   1.345 -0.2744  0.0017  0.5510
 3708WAT     H211336   2.510   3.368   1.389 -2.3647 -0.5244  1.6713
 3709WAT      O11337   0.216   0.713   2.964 -0.4990 -0.2998  0.3272
 3709WAT     H111338   0.303   0.752   2.955  0.3213 -1.9419  0.8669
 3709WAT     H211339   0.169   0.774   3.020  0.2268  0.7032 -0.1087
 3710WAT      O11340   1.575   2.814   4.278 -0.6277 -0.6198  0.1734
 3710WAT     H111341   1.636   2.836   4.349  0.9618 -2.4102 -0.5415
 3710WAT     H211342   1.530   2.896   4.259  0.3043  0.3646  1.9365
 3711WAT      O11343   2.169   1.084   3.265 -0.3653 -0.0856  0.1466
 3711WAT     H111344   2.154   0.990   3.276  0.4209 -0.1344  0.8841
 3711WAT     H211345   2.236   1.105   3.329  0.6697  0.6568 -1.1313
 3712WAT      O11346   1.787   2.625   2.231 -0.3579  0.2571 -0.1280
 3712WAT     H111347   1.812   2.716   2.214  1.7798 -0.4090 -0.7831
 3712WAT     H211348   1.805   2.579   2.149 -0.7387 -0.9072  0.4182
 3713WAT      O11349   2.559   4.297   5.260 -0.3019 -0.3606 -0.7739
 3713WAT     H111350   2.542   4.282   5.167 -1.9320 -1.7204 -0.3086
 3713WAT     H211351   2.503   4.234   5.305 -0.4997  1.1095  1.1731
 3714WAT      O11352   1.592   1.269   4.440  0.2761  0.0704  0.4673
 3714WAT     H111353   1.655   1.255   4.511  2.3648 -0.2441 -1.3455
 3714WAT     H211354   1.646   1.291   4.364 -1.9197  1.3548 -0.8331
 3715WAT      O11355   0.845   1.686   3.136 -0.0035  0.5662  0.0992
 3715WAT     H111356   0.846   1.628   3.212 -1.6805  3.1403  2.2477
 3715WAT     H211357   0.915   1.652   3.080  1.9842 -0.9354  3.1819
 3716WAT      O11358   0.616   3.550   4.616 -0.0771 -0.1247 -0.5941
 3716WAT     H111359   0.711   3.542   4.624 -0.0757  0.4399  0.1110
 3716WAT     H211360   0.602   3.578   4.525  0.7001  2.9649  0.1042
 3717WAT      O11361   2.614   3.367   3.212  0.4928  0.3383 -0.2474
 3717WAT     H111362   2.668   3.384   3.134  1.8283 -1.8845  0.1077
 3717WAT     H211363   2.662   3.299   3.259 -1.4793 -0.0154  1.3394
 3718WAT      O11364   2.035   1.796   5.181 -0.8228 -0.0744 -0.1281
 3718WAT     H111365   1.986   1.871   5.215 -2.4529 -1.3010  0.3710
 3718WAT     H211366   2.005   1.786   5.091 -0.1723  0.2311 -0.3772
 3719WAT      O11367   2.469   2.958   5.669  0.0239  0.0249 -0.7602
 3719WAT     H111368   2.495   3.050   5.681 -0.7245  0.1954 -0.4350
 3719WAT     H211369   2.447   2.927   5.756 -0.7027 -0.1694 -1.0081
 3720WAT      O11370   1.942   3.046   4.243  0.0071 -0.7583 -0.4118
 3720WAT     H111371   1.946   3.106   4.317 -1.4047 -0.8216 -0.2681
 3720WAT     H211372   1.854   3.057   4.207 -0.6765 -3.4078  0.2200
 3721WAT      O11373   2.606   0.351   4.723 -0.2071  0.2560  0.2414
 3721WAT     H111374   2.589   0.367   4.630 -0.0223 -2.0000 -0.2473
 3721WAT     H211375   2.682   0.405   4.744 -0.4734  1.0630 -0.8097
 3722WAT      O11376   2.947   2.223   0.900  0.3427 -0.3282 -0.4893
 3722WAT     H111377   3.015   2.155   0.897  0.3395 -0.4026  0.7412
 3722WAT     H211378   2.933   2.238   0.993  0.0633  1.1003 -0.7451
 3723WAT      O11379   1.894   1.104   5.350 -0.4161  0.2487  0.3998
 3723WAT     H111380   1.844   1.150   5.283 -0.5405 -2.1311 -1.2743
 3723WAT     H211381   1.977   1.083   5.308 -0.0891 -0.4273  1.3433
 3724WAT      O11382   2.440   3.064   4.831 -0.3849  0.2940  0.3173
 3724WAT     H111383   2.367   3.125   4.821 -1.3965 -1.1013 -1.3477
 3724WAT     H211384   2.511   3.102   4.779 -0.6895  0.5127  0.0615
 3725WAT      O11385   2.089   3.278   1.876  0.6540 -0.0756 -0.2446
 3725WAT     H111386   2.056   3.310   1.792  1.3452 -0.0504 -0.5119
 3725WAT     H211387   2.015   3.232   1.915 -0.4173  1.8817  0.1673
 3726WAT      O11388   0.057   3.369   3.984  0.2520  0.0924  0.0585
 3726WAT     H111389   0.057   3.346   3.891 -0.4232  1.8047 -0.4032
 3726WAT     H211390   0.147   3.396   4.003 -0.0898  1.8958 -0.7101
 3727WAT      O11391   3.717   1.187   1.797 -0.2740  0.7833  0.3570
 3727WAT     H111392   3.729   1.214   1.888  0.2073  0.7510  0.3064
 3727WAT     H211393   3.806   1.179   1.763 -0.4543  0.8294 -0.1268
 3728WAT      O11394   3.918   5.275   1.613  0.3368 -0.2000 -0.0955
 3728WAT     H111395   3.993   5.321   1.575 -0.2378  0.4914 -0.4025
 3728WAT     H211396   3.843   5.331   1.595 -0.1288 -0.4376  1.0229
 3729WAT      O11397   3.587   4.557   2.003 -0.1466  0.1728  0.1008
 3729WAT     H111398   3.551   4.556   2.091 -1.3337  0.7840 -0.3638
 3729WAT     H211399   3.601   4.649   1.984 -0.5352  0.0894 -0.6034
 3730WAT      O11400   2.202   3.802   5.234 -0.3050 -0.0647 -0.0265
 3730WAT     H111401   2.264   3.731   5.250 -0.7513 -1.3517 -3.2898
 3730WAT     H211402   2.128   3.781   5.291  0.5140 -0.8826  0.7871
 3731WAT      O11403   2.339   3.432   3.220  0.0495 -0.0135  0.0693
 3731WAT     H111404   2.339   3.525   3.240 -1.7112 -0.1212  0.7301
 3731WAT     H211405   2.427   3.414   3.187  0.5706  1.7653  0.4282
 3732WAT      O11406   1.261   0.825   5.181  0.3764 -0.4020  0.2630
 3732WAT     H111407   1.171   0.794   5.190  0.2261 -0.1666 -0.4208
 3732WAT     H211408   1.253   0.921   5.179  0.5394 -0.4046 -0.8355
 3733WAT      O11409   4.217   5.429   2.825  0.3703 -0.7740 -0.2443
 3733WAT     H111410   4.147   5.466   2.771 -0.4866  2.2659  2.6228
 3733WAT     H211411   4.297   5.441   2.773 -0.7431 -0.7413 -2.0130
 3734WAT      O11412   3.894   5.414   3.532  0.6226 -0.5932  0.6732
 3734WAT     H111413   3.864   5.333   3.493  1.4789 -0.7073  0.2353
 3734WAT     H211414   3.969   5.389   3.586  0.6707 -0.1475  0.8204
 3735WAT      O11415   1.522   2.263   4.570  0.2946  0.4372 -0.2472
 3735WAT     H111416   1.518   2.167   4.573  0.7675  0.3834 -1.0495
 3735WAT     H211417   1.460   2.287   4.502 -0.3063  0.7565  0.3971
 3736WAT      O11418   2.121   3.680   4.179 -0.2579  0.2151 -0.1818
 3736WAT     H111419   2.047   3.620   4.172 -0.0912  0.1874 -2.2782
 3736WAT     H211420   2.096   3.755   4.126  0.6679  0.7909  0.1819
 3737WAT      O11421   1.941   4.066   0.646  0.4804 -0.3165  0.1664
 3737WAT     H111422   1.938   4.141   0.586 -0.1429 -0.9503 -0.6146
 3737WAT     H211423   1.950   4.106   0.733  0.8593  0.6373 -0.2897
 3738WAT      O11424   4.326   1.172   3.626 -0.0048 -0.0599  0.2418
 3738WAT     H111425   4.356   1.243   3.683  0.5269 -1.2950  1.5591
 3738WAT     H211426   4.396   1.164   3.560 -0.9685  1.8690 -1.1413
 3739WAT      O11427   2.859   0.378   3.947 -0.2650 -0.0988  0.1508
 3739WAT     H111428   2.894   0.350   3.863  0.0686 -1.2663  0.6587
 3739WAT     H211429   2.935   0.383   4.005 -0.7097 -1.1709  0.8640
 3740WAT      O11430   1.099   0.901   1.747 -0.5191 -0.2475 -0.0625
 3740WAT     H111431   1.004   0.910   1.739 -0.3472  0.8805 -1.1681
 3740WAT     H211432   1.113   0.864   1.834 -1.8783  1.6015  1.0055
 3741WAT      O11433   2.529   0.058   0.229  0.1216  0.1118  0.0332
 3741WAT     H111434   2.467   0.073   0.158 -0.8038 -0.9501  0.5732
 3741WAT     H211435   2.473   0.045   0.307  0.9471 -1.5352  0.4100
 3742WAT      O11436   4.340   3.025   4.748 -0.3277 -0.7238  0.5045
 3742WAT     H111437   4.335   3.006   4.654 -2.4083 -0.3731  0.4976
 3742WAT     H211438   4.428   3.059   4.761  0.2294 -1.4059 -1.1962
 3743WAT      O11439   2.196   4.763   4.119 -0.2285  0.0492 -0.4163
 3743WAT     H111440   2.153   4.839   4.079 -0.7948 -0.5384 -0.9584
 3743WAT     H211441   2.131   4.692   4.111 -0.6767  0.0763  2.2694
 3744WAT      O11442   4.437   5.386   4.099  0.1223 -0.1887 -0.0241
 3744WAT     H111443   4.491   5.451   4.143 -0.1264  1.2211 -1.6868
 3744WAT     H211444   4.493   5.352   4.029  0.3077 -1.9473  0.9110
 3745WAT      O11445   0.794   5.038   4.427  0.5727  0.1099 -0.2053
 3745WAT     H111446   0.797   5.044   4.332 -0.0672 -0.0046 -0.2378
 3745WAT     H211447   0.769   5.126   4.456 -1.7800 -0.4440 -0.3014
 3746WAT      O11448   2.167   0.802   3.294  0.1428 -0.4381  0.5292
 3746WAT     H111449   2.209   0.810   3.379  0.3813  0.9432  0.3143
 3746WAT     H211450   2.088   0.751   3.310 -0.9483  1.5605  2.0282
 3747WAT      O11451   4.789   5.298   4.802 -0.4575 -0.4005 -0.1560
 3747WAT     H111452   4.720   5.359   4.776 -0.6915 -0.1236  1.0534
 3747WAT     H211453   4.747   5.211   4.795 -0.0102 -0.5079 -2.2387
 3748WAT      O11454   2.380   0.283   4.224  0.0307 -0.2435  0.1111
 3748WAT     H111455   2.337   0.203   4.196 -1.3072 -0.0169  1.4057
 3748WAT     H211456   2.374   0.341   4.148  1.0184 -1.3387 -0.8330
 3749WAT      O11457   4.599   1.325   4.311  0.1441  0.0625 -1.0516
 3749WAT     H111458   4.575   1.344   4.402  0.1071 -0.3619 -0.9709
 3749WAT     H211459   4.592   1.409   4.266  0.3401  0.3116 -0.6210
 3750WAT      O11460   2.015   5.158   3.216 -0.1454  0.5855 -0.0298
 3750WAT     H111461   2.076   5.220   3.176 -0.8402  1.2585 -0.0850
 3750WAT     H211462   1.935   5.210   3.230 -0.3908 -0.0270  0.8897
 3751WAT      O11463   0.718   4.267   3.648  0.0871 -0.0557 -0.2850
 3751WAT     H111464   0.714   4.357   3.682 -0.2588 -0.2774  0.2730
 3751WAT     H211465   0.774   4.221   3.710 -1.4100 -0.7238  0.6153
 3752WAT      O11466   1.139   4.880   2.107 -0.3420 -0.0081  0.1678
 3752WAT     H111467   1.194   4.925   2.043 -0.2944  0.3747  0.4720
 3752WAT     H211468   1.152   4.787   2.090  1.3383  0.0364  1.0040
 3753WAT      O11469   1.208   0.005   5.636 -0.0330 -0.3305  0.0606
 3753WAT     H111470   1.279  -0.005   5.699  1.7653 -0.8554 -1.9261
 3753WAT     H211471   1.206   0.100   5.618 -0.0912 -0.2656  0.4112
 3754WAT      O11472   3.066   2.687   2.051 -0.4170 -0.2498  0.5253
 3754WAT     H111473   3.121   2.686   1.973 -1.6458  0.5134 -0.4113
 3754WAT     H211474   3.125   2.671   2.124  0.7748 -0.9279 -0.5660
 3755WAT      O11475   1.315   0.374   3.813 -0.0666 -0.2299  0.4306
 3755WAT     H111476   1.380   0.304   3.804  0.6461  0.4310  0.2488
 3755WAT     H211477   1.365   0.447   3.850 -0.4512  0.6696 -0.7764
 3756WAT      O11478   1.360   2.652   2.491 -0.2163  0.1392  0.7170
 3756WAT     H111479   1.369   2.642   2.396 -2.9313  0.6056  0.3335
 3756WAT     H211480   1.444   2.625   2.526  1.0368  0.4210 -1.8521
 3757WAT      O11481   0.414   5.482   2.630 -0.2800  0.2522 -0.0368
 3757WAT     H111482   0.361   5.516   2.558 -0.9348  1.1665  0.8478
 3757WAT     H211483   0.474   5.552   2.651 -0.2957  0.1073  0.5012
 3758WAT      O11484   3.811   2.602   3.085  0.6538  0.0059 -0.4650
 3758WAT     H111485   3.807   2.542   3.160  0.0014 -1.2026 -1.4271
 3758WAT     H211486   3.895   2.584   3.044  0.7938  0.3102 -0.3139
 3759WAT      O11487   1.060   4.880   5.238 -0.4009 -0.1362 -0.2190
 3759WAT     H111488   1.032   4.967   5.209 -0.1333  0.4840  1.3214
 3759WAT     H211489   1.121   4.896   5.310 -0.9812 -1.6000  0.6504
 3760WAT      O11490   1.990   5.613   1.272 -0.2846  0.1938  0.7540
 3760WAT     H111491   1.985   5.637   1.365  1.0370  2.6725  0.2626
 3760WAT     H211492   1.906   5.640   1.235 -1.0232 -1.2723  1.2541
 3761WAT      O11493   1.557   1.221   2.471  0.0475  0.5066 -0.3363
 3761WAT     H111494   1.470   1.260   2.457 -0.2556 -0.0650 -0.0606
 3761WAT     H211495   1.550   1.175   2.554  1.0941  1.7693  0.4838
 3762WAT      O11496   1.659   5.226   1.936  0.0599 -0.2286 -0.1084
 3762WAT     H111497   1.752   5.225   1.957  0.3795  0.1583 -1.3905
 3762WAT     H211498   1.656   5.207   1.842 -1.1231  0.1110 -0.1544
 3763WAT      O11499   3.209   4.866   0.203  0.3920  0.3297 -0.4439
 3763WAT     H111500   3.276   4.918   0.248 -0.9704  0.8472  1.0847
 3763WAT     H211501   3.149   4.930   0.166 -0.1623 -0.1311 -0.3554
 3764WAT      O11502   1.771   2.445   3.661 -0.9357  0.0139 -0.2446
 3764WAT     H111503   1.816   2.392   3.595  1.6080  1.4103  0.2056
 3764WAT     H211504   1.821   2.429   3.741 -2.1897  0.5383  0.6610
 3765WAT      O11505   1.433   4.374   5.652 -0.8556 -0.5149  0.4143
 3765WAT     H111506   1.436   4.278   5.644 -1.2302 -0.5204  0.3232
 3765WAT     H211507   1.425   4.406   5.563 -1.5592 -0.4358  0.5015
 3766WAT      O11508   1.400   0.495   2.943  0.3508 -0.3788  0.5853
 3766WAT     H111509   1.492   0.488   2.966  0.6182 -0.4529 -0.4470
 3766WAT     H211510   1.371   0.578   2.982  0.8412 -0.3721  0.9372
 3767WAT      O11511   1.321   0.323   2.227 -0.1353 -0.3217  0.1077
 3767WAT     H111512   1.336   0.270   2.149  0.3444  0.5669 -0.4237
 3767WAT     H211513   1.407   0.327   2.270  0.0621  0.7799 -0.3574
 3768WAT      O11514   4.232   3.218   2.956 -0.0155  0.1552  0.2085
 3768WAT     H111515   4.222   3.290   2.894 -0.3153  0.4295  0.5668
 3768WAT     H211516   4.152   3.167   2.946  0.0150  0.1015  0.2412
 3769WAT      O11517   4.137   3.557   4.008  0.2265 -0.3695  0.2345
 3769WAT     H111518   4.115   3.554   3.915 -1.9441  1.0962  0.6149
 3769WAT     H211519   4.182   3.641   4.019 -0.2629 -0.1535  0.6287
 3770WAT      O11520   4.266   1.123   2.932  0.4287 -0.2831  0.9558
 3770WAT     H111521   4.356   1.125   2.897  0.3653  0.1590  0.8180
 3770WAT     H211522   4.247   1.214   2.955  0.1017 -0.4155  1.2116
 3771WAT      O11523   1.928   0.810   1.071 -0.1941 -0.5607 -0.3246
 3771WAT     H111524   1.880   0.837   1.149  0.7595  0.7151 -0.1247
 3771WAT     H211525   1.861   0.790   1.006 -0.9946 -1.1081  0.6467
 3772WAT      O11526   2.598   2.261   3.491 -0.0084  0.4573 -0.2153
 3772WAT     H111527   2.509   2.277   3.524 -0.0885  0.7225 -0.5643
 3772WAT     H211528   2.592   2.174   3.450 -0.6468  1.3360 -2.0971
 3773WAT      O11529   1.394   4.520   2.008 -0.4000 -0.7986  0.2465
 3773WAT     H111530   1.465   4.456   2.017 -0.6332 -0.8279  2.3815
 3773WAT     H211531   1.397   4.569   2.090 -1.4299  0.6923 -0.5822
 3774WAT      O11532   2.668   1.807   1.522  0.1983 -0.6192 -0.4312
 3774WAT     H111533   2.660   1.901   1.535  0.6537 -0.2157 -2.6475
 3774WAT     H211534   2.579   1.773   1.537 -0.0032  0.1601  0.2109
 3775WAT      O11535   0.576   1.228   3.037  0.2210  0.7944  0.1037
 3775WAT     H111536   0.660   1.235   2.992  2.1775 -0.9462  3.1395
 3775WAT     H211537   0.580   1.292   3.108  0.0299 -0.7875  1.6337
 3776WAT      O11538   0.791   5.420   3.918  0.0088 -0.0672 -0.3666
 3776WAT     H111539   0.866   5.363   3.933 -0.0372 -0.2648 -0.8842
 3776WAT     H211540   0.717   5.361   3.905 -1.2001  0.0017  4.2954
 3777WAT      O11541   1.625   4.378   4.896  0.1199 -0.3438  0.3176
 3777WAT     H111542   1.598   4.421   4.978  1.6170  0.3747  0.4706
 3777WAT     H211543   1.662   4.449   4.843  0.4999 -1.0579 -0.3881
 3778WAT      O11544   1.997   1.609   2.074  0.0291  0.1106 -0.0487
 3778WAT     H111545   1.984   1.578   2.164 -0.7767 -2.5169 -0.9821
 3778WAT     H211546   2.079   1.658   2.078  0.7298 -1.1038  1.8667
 3779WAT      O11547   2.733   1.383   3.115 -0.3560 -0.1945  0.4260
 3779WAT     H111548   2.794   1.336   3.058  0.1567  0.5426  0.3620
 3779WAT     H211549   2.782   1.398   3.196 -0.6251 -0.0319  0.5606
 3780WAT      O11550   2.237   2.401   0.199  0.0527 -0.4250 -0.1458
 3780WAT     H111551   2.179   2.328   0.179 -0.1399  0.0440 -1.3885
 3780WAT     H211552   2.253   2.442   0.114  1.6931 -0.1685  0.2596
 3781WAT      O11553   1.019   3.707   4.234 -0.2040  0.0372 -1.0539
 3781WAT     H111554   1.102   3.663   4.255 -1.1784 -1.6569 -0.5756
 3781WAT     H211555   1.046   3.787   4.189  1.7407  0.2382  0.2961
 3782WAT      O11556   3.519   0.238   2.028  0.2014 -0.4150  0.0131
 3782WAT     H111557   3.535   0.224   1.934  1.6472  0.8086  0.0520
 3782WAT     H211558   3.576   0.175   2.071  1.4993  0.7546  0.0764
 3783WAT      O11559   1.812   5.452   2.328 -0.1936  0.4507  0.4805
 3783WAT     H111560   1.738   5.509   2.350 -2.3063 -1.2862 -1.5220
 3783WAT     H211561   1.795   5.371   2.377  0.8495  0.2982  0.6080
 3784WAT      O11562   3.100   4.356   5.747  0.1035  0.0732 -0.1073
 3784WAT     H111563   3.187   4.337   5.712 -0.0170 -0.3081 -0.2043
 3784WAT     H211564   3.103   4.449   5.772 -0.3236  0.8358 -2.6359
 3785WAT      O11565   0.906   4.144   5.352  0.0382 -0.0839 -0.1200
 3785WAT     H111566   0.995   4.133   5.318  0.4043  1.1567  0.3570
 3785WAT     H211567   0.880   4.057   5.380  0.7749 -0.6223 -1.0561
 3786WAT      O11568   0.820   1.556   3.370  0.1290  0.1926 -0.2671
 3786WAT     H111569   0.815   1.582   3.462 -0.6103  0.5117 -0.3924
 3786WAT     H211570   0.730   1.540   3.345  0.4385 -1.1078 -0.6027
 3787WAT      O11571   1.949   0.006   2.103 -0.9342  0.3295 -0.3266
 3787WAT     H111572   2.020   0.057   2.064  0.2028  0.0364  1.2960
 3787WAT     H211573   1.899   0.070   2.155 -0.8470  0.2154 -0.1022
 3788WAT      O11574   0.351   5.570   4.578 -0.1894 -0.0260  0.4843
 3788WAT     H111575   0.395   5.580   4.494 -1.4691 -2.1581 -0.5110
 3788WAT     H211576   0.410   5.515   4.630 -0.4871 -0.7329  0.0838
 3789WAT      O11577   4.521   1.955   3.297 -0.0427  0.6123  0.0903
 3789WAT     H111578   4.461   2.020   3.333  0.7167  0.6139  1.4139
 3789WAT     H211579   4.576   2.004   3.236 -0.2585  0.9596  0.1738
 3790WAT      O11580   0.596   4.484   2.814  0.1095  0.2808 -0.0662
 3790WAT     H111581   0.607   4.493   2.908 -1.9021 -0.5334  0.3003
 3790WAT     H211582   0.642   4.559   2.777 -0.9382  1.8851  1.7192
 3791WAT      O11583   1.795   1.423   2.760 -0.3099  0.3150  0.6340
 3791WAT     H111584   1.701   1.403   2.762 -0.2905  0.2111  2.2567
 3791WAT     H211585   1.819   1.433   2.852  1.4324 -0.4266  0.3052
 3792WAT      O11586   0.052   0.023   3.886  0.4485  0.1969 -0.1443
 3792WAT     H111587   0.119  -0.043   3.869  1.0581  0.8914 -0.5294
 3792WAT     H211588   0.101   0.106   3.891 -0.3235  0.6544  0.0620
 3793WAT      O11589   3.844   1.818   3.438 -0.1749 -0.5601 -0.3156
 3793WAT     H111590   3.764   1.868   3.453 -0.1245 -0.8339  1.0888
 3793WAT     H211591   3.891   1.867   3.371 -0.9475  0.2907 -0.2611
 3794WAT      O11592   3.368   2.432   4.853 -0.0148 -0.0621  0.1715
 3794WAT     H111593   3.442   2.475   4.810 -0.6685  2.0899  1.0305
 3794WAT     H211594   3.306   2.415   4.782  0.1836  0.6405 -0.1781
 3795WAT      O11595   1.854   0.213   2.286 -0.1177 -0.4247  0.2749
 3795WAT     H111596   1.872   0.252   2.372  1.9740 -0.0443 -0.2762
 3795WAT     H211597   1.868   0.285   2.224 -1.9130 -0.6070 -0.4111
 3796WAT      O11598   1.449   1.672   2.336 -0.4051 -0.5955  0.2613
 3796WAT     H111599   1.449   1.579   2.313 -0.8130  0.1285 -3.2315
 3796WAT     H211600   1.358   1.700   2.325  0.1474  0.7035 -1.3150
 3797WAT      O11601   2.077   2.005   4.590 -0.2368  0.1582  0.2055
 3797WAT     H111602   1.998   2.027   4.542 -1.3446 -1.7850  1.0043
 3797WAT     H211603   2.096   1.914   4.565  0.2011 -0.2903  2.0044
 3798WAT      O11604   0.150   5.419   4.426 -0.6096 -0.2912  0.0850
 3798WAT     H111605   0.080   5.372   4.471  0.3831 -1.1013  0.8411
 3798WAT     H211606   0.154   5.504   4.471  0.4117 -1.1135  1.6608
 3799WAT      O11607   4.245   1.262   5.048  0.1439 -0.5465  0.0360
 3799WAT     H111608   4.310   1.260   5.118  0.0475 -1.2815  0.1122
 3799WAT     H211609   4.208   1.173   5.047 -0.1366 -0.4275 -0.6786
 3800WAT      O11610   1.459   0.592   3.884 -0.5764  0.3571 -0.5482
 3800WAT     H111611   1.491   0.638   3.807 -1.1387 -0.9032 -1.5902
 3800WAT     H211612   1.536   0.549   3.921 -0.2674  1.1381 -0.2787
 3801WAT      O11613   4.322   2.189   4.657 -0.0777 -0.3519 -0.1769
 3801WAT     H111614   4.329   2.099   4.627 -0.3359 -0.8791  1.2601
 3801WAT     H211615   4.283   2.182   4.744 -0.0497  1.1464 -0.0183
 3802WAT      O11616   1.890   5.495   5.473 -0.5302  0.6058 -0.1950
 3802WAT     H111617   1.885   5.524   5.382  1.4428 -0.1612 -0.5912
 3802WAT     H211618   1.967   5.539   5.508  1.0603 -2.0882 -0.0831
 3803WAT      O11619   1.081   0.948   4.829 -0.2313  0.0593  0.3447
 3803WAT     H111620   1.136   1.008   4.880  1.6544 -0.0812 -1.3819
 3803WAT     H211621   1.140   0.913   4.762 -2.1146 -1.2133 -0.7391
 3804WAT      O11622   1.052   5.594   2.628 -0.4005 -0.1544  0.1080
 3804WAT     H111623   1.091   5.637   2.704 -2.2824  1.5385  0.2080
 3804WAT     H211624   0.972   5.554   2.662  0.7446 -2.9233 -0.2219
 3805WAT      O11625   1.839   0.387   2.508 -0.1715  0.2472 -0.2646
 3805WAT     H111626   1.915   0.409   2.561  1.5018 -0.0057 -2.4049
 3805WAT     H211627   1.771   0.364   2.571  1.0817  1.7833  1.7617
 3806WAT      O11628   4.234   5.344   5.177  0.8990  0.1135  0.2160
 3806WAT     H111629   4.183   5.418   5.145  1.7029  0.9576  0.8336
 3806WAT     H211630   4.184   5.311   5.252 -0.0156 -0.6812 -0.7066
 3807WAT      O11631   0.031   2.119   2.710 -0.2441  0.4867 -0.1348
 3807WAT     H111632   0.075   2.156   2.634 -0.5197  0.7482 -0.1711
 3807WAT     H211633  -0.053   2.166   2.714  0.3120  1.4396  1.0976
 3808WAT      O11634   1.799   1.928   1.377  0.4390  0.6281 -0.4411
 3808WAT     H111635   1.752   2.011   1.379 -1.4525 -0.3610 -1.0204
 3808WAT     H211636   1.777   1.885   1.460  0.8847  0.4334 -0.4188
 3809WAT      O11637   1.802   0.645   2.000  0.2174 -0.1365 -0.2157
 3809WAT     H111638   1.838   0.695   1.927 -1.3069 -0.3781 -1.1814
 3809WAT     H211639   1.832   0.691   2.079  0.1773  1.3517 -1.0437
 3810WAT      O11640   0.760   0.547   1.906 -0.1269  0.2059  0.1305
 3810WAT     H111641   0.827   0.571   1.969  1.1176  1.3663 -1.5316
 3810WAT     H211642   0.760   0.452   1.906  1.0579  0.1856  0.6540
 3811WAT      O11643   1.827   1.028   4.310 -0.1929 -0.4355  0.5634
 3811WAT     H111644   1.807   1.021   4.403 -0.0930 -1.8257  0.4935
 3811WAT     H211645   1.879   1.108   4.302 -2.2624  1.0859  1.3317
 3812WAT      O11646   1.127   2.426   3.966 -0.1991 -0.0758 -0.0138
 3812WAT     H111647   1.086   2.343   3.991  2.0812 -0.7713  1.9125
 3812WAT     H211648   1.146   2.469   4.050  0.8749  1.2214 -0.8725
 3813WAT      O11649   4.372   5.277   3.576  0.5333 -0.0878 -0.4520
 3813WAT     H111650   4.423   5.201   3.549 -0.1717 -0.7881  0.1568
 3813WAT     H211651   4.287   5.242   3.603  0.5954  0.7794  0.9677
 3814WAT      O11652   1.646   5.326   3.482  0.0095  0.5071  0.1166
 3814WAT     H111653   1.612   5.255   3.427 -0.3793 -0.5455  1.6638
 3814WAT     H211654   1.741   5.317   3.476 -0.0152 -1.2040  1.5546
 3815WAT      O11655   0.131   5.619   4.862  0.1383 -0.2655  0.5901
 3815WAT     H111656   0.224   5.641   4.865  0.1790 -0.4988  1.3356
 3815WAT     H211657   0.124   5.539   4.913 -0.7141  0.6967  2.0631
 3816WAT      O11658   2.922   2.685   1.348  0.1412 -0.4326 -0.5864
 3816WAT     H111659   2.949   2.660   1.259  1.6694  0.1666 -0.3252
 3816WAT     H211660   2.843   2.737   1.336  2.0228  2.3828 -1.9452
 3817WAT      O11661   2.098   4.936   1.611 -0.0168 -0.1527 -0.3435
 3817WAT     H111662   2.047   4.993   1.554  0.0296 -1.0535 -1.3254
 3817WAT     H211663   2.053   4.939   1.695 -0.5410  0.5964 -0.6414
 3818WAT      O11664   4.829   0.585   4.603  0.3226  0.2818 -0.1968
 3818WAT     H111665   4.752   0.552   4.650 -0.0724  0.6510 -0.5854
 3818WAT     H211666   4.852   0.666   4.648  2.1112 -1.1211  1.6322
 3819WAT      O11667   1.181   0.429   4.455 -0.3372 -0.5351 -0.1686
 3819WAT     H111668   1.256   0.472   4.495 -0.7303  0.4013 -0.4260
 3819WAT     H211669   1.133   0.391   4.528  1.1672 -2.4708 -0.0991
 3820WAT      O11670   3.882   0.125   3.149 -0.3943 -0.1457 -0.4654
 3820WAT     H111671   3.969   0.119   3.188 -0.4477  0.8017 -0.1833
 3820WAT     H211672   3.822   0.113   3.223 -0.4926  1.0236 -0.3307
 3821WAT      O11673   1.040   1.840   3.766  0.1196 -0.3198  0.2904
 3821WAT     H111674   1.060   1.765   3.710 -1.7048 -0.2975 -0.4780
 3821WAT     H211675   1.034   1.914   3.705 -0.5809 -0.0426  0.6837
 3822WAT      O11676   3.688  -0.020   5.079 -0.5586 -0.5090 -0.1234
 3822WAT     H111677   3.759  -0.037   5.017 -0.2912  1.2829 -0.3575
 3822WAT     H211678   3.702   0.071   5.106 -0.4978 -1.3128  2.8032
 3823WAT      O11679   1.231   4.361   2.628 -0.0468  0.1026 -0.2229
 3823WAT     H111680   1.215   4.357   2.533 -0.5189 -0.3309 -0.1277
 3823WAT     H211681   1.310   4.413   2.636 -0.1939  0.4346 -0.8411
 3824WAT      O11682   1.626   1.745   3.245  0.0637 -0.4953  0.0285
 3824WAT     H111683   1.714   1.712   3.265  0.1405 -0.9321 -1.0045
 3824WAT     H211684   1.584   1.674   3.197 -1.5848 -1.0955  2.2283
 3825WAT      O11685   1.212   1.808   3.991  0.2296 -0.2403 -0.1597
 3825WAT     H111686   1.168   1.856   4.061 -0.4656 -0.2434 -0.5871
 3825WAT     H211687   1.145   1.795   3.924  0.7438 -0.7007 -0.6021
 3826WAT      O11688   4.871   5.465   2.703  0.6945  0.4704 -0.1527
 3826WAT     H111689   4.917   5.426   2.778  3.6667  3.2099 -0.3280
 3826WAT     H211690   4.907   5.421   2.627 -1.9539 -1.9517 -0.1431
 3827WAT      O11691   0.220   4.548   2.345 -0.1606 -0.5294 -0.0131
 3827WAT     H111692   0.194   4.602   2.420  0.1500 -0.3075 -0.0618
 3827WAT     H211693   0.205   4.604   2.269 -1.5587 -1.1568 -0.2213
 3828WAT      O11694   1.546   1.495   3.119  0.8571  0.1072  0.9152
 3828WAT     H111695   1.568   1.404   3.137  1.3335 -0.1640 -0.8586
 3828WAT     H211696   1.450   1.498   3.124  0.8876 -0.2486  1.9365
 3829WAT      O11697   1.348   4.396   3.449  0.1145 -0.7869 -0.1893
 3829WAT     H111698   1.312   4.361   3.530 -1.6397 -0.2839 -0.7002
 3829WAT     H211699   1.406   4.328   3.417 -1.3254 -2.2202  0.0918
 3830WAT      O11700   1.865   1.204   1.693 -0.5186  0.7185  0.2075
 3830WAT     H111701   1.958   1.220   1.708 -0.2079  1.4979 -2.1682
 3830WAT     H211702   1.837   1.276   1.636 -1.9442 -0.8628 -1.1953
 3831WAT      O11703   1.700   0.465   2.931  0.0362 -0.8084 -0.4711
 3831WAT     H111704   1.778   0.431   2.887  0.3948 -0.0617 -0.4175
 3831WAT     H211705   1.698   0.420   3.015  0.3385 -0.9226 -0.5244
 3832WAT      O11706   0.082   4.673   4.235  0.3376 -0.5878 -0.0877
 3832WAT     H111707   0.040   4.620   4.167  1.6523 -1.9303  0.0949
 3832WAT     H211708   0.030   4.656   4.314 -0.3221 -0.1652 -0.4229
 3833WAT      O11709   1.749   0.203   3.387  0.1137 -0.4863  0.5618
 3833WAT     H111710   1.665   0.220   3.428 -1.3925 -1.7100 -1.8067
 3833WAT     H211711   1.754   0.107   3.380  1.3293 -0.4031 -0.0755
 3834WAT      O11712   3.257   1.429   5.572 -0.0432 -0.0995 -0.3748
 3834WAT     H111713   3.212   1.344   5.577 -2.7267  1.1454 -1.5445
 3834WAT     H211714   3.261   1.459   5.663 -3.5248  0.5700 -0.3027
 3835WAT      O11715   2.495   0.045   5.213  0.3070 -0.3920 -0.6725
 3835WAT     H111716   2.542   0.128   5.211  1.0785 -0.7402  0.9844
 3835WAT     H211717   2.474   0.027   5.122  0.6908  1.2926 -1.1326
 3836WAT      O11718   1.891   1.774   5.503  0.4850  0.5327 -0.4676
 3836WAT     H111719   1.950   1.794   5.575 -1.5289  2.6998  0.7182
 3836WAT     H211720   1.935   1.811   5.426  1.4835  0.5128  0.0695
 3837WAT      O11721   0.580   1.773   3.275  0.2012 -0.3734  0.1138
 3837WAT     H111722   0.546   1.717   3.344  0.5901  0.9627  1.4501
 3837WAT     H211723   0.672   1.747   3.265 -0.0054 -0.9505 -0.3173
 3838WAT      O11724   2.766   3.166   1.629  0.2996 -0.0287 -0.8553
 3838WAT     H111725   2.758   3.080   1.670 -4.2186  0.2331 -0.5919
 3838WAT     H211726   2.749   3.228   1.700  0.8007  0.9102 -1.5385
 3839WAT      O11727   3.249   0.836   1.851 -0.2020 -0.2459  0.4373
 3839WAT     H111728   3.175   0.894   1.831 -1.4400 -1.2622  1.8557
 3839WAT     H211729   3.297   0.883   1.919  1.3001  1.0227 -1.3762
 3840WAT      O11730   1.289   1.734   4.938 -0.7405 -0.3175  0.2278
 3840WAT     H111731   1.350   1.684   4.884 -0.1954  0.7574 -0.1849
 3840WAT     H211732   1.230   1.776   4.875 -1.7025 -1.0534  0.6059
 3841WAT      O11733   1.488   4.821   2.896  0.6396 -1.0228 -0.4357
 3841WAT     H111734   1.548   4.774   2.954  0.7902  0.1079  0.3675
 3841WAT     H211735   1.414   4.844   2.953  1.4103  1.3355 -0.2533
 3842WAT      O11736   1.238   4.249   1.941 -0.0336  0.3084  0.6145
 3842WAT     H111737   1.287   4.331   1.942  0.1863  0.1746  0.9927
 3842WAT     H211738   1.286   4.193   1.880  0.3210  0.1592  1.0231
 3843WAT      O11739   1.522   2.171   1.737 -0.3889 -0.5294  0.0903
 3843WAT     H111740   1.484   2.089   1.708 -0.2581 -0.1277 -1.3196
 3843WAT     H211741   1.524   2.226   1.658  1.7690 -0.0358  0.4097
 3844WAT      O11742   1.491   0.117   4.028  0.5338  0.6246 -0.3949
 3844WAT     H111743   1.399   0.097   4.043  0.6050 -0.6714 -1.5682
 3844WAT     H211744   1.526   0.137   4.115 -0.0863 -2.1525  0.5690
 3845WAT      O11745   3.962   1.371   2.364 -0.2332  0.6784  0.5092
 3845WAT     H111746   3.891   1.323   2.320 -0.4230 -0.9690  2.4664
 3845WAT     H211747   3.949   1.352   2.457  2.7784  0.3102  0.9538
 3846WAT      O11748   1.360   2.125   5.124  1.1321  0.1566  0.6484
 3846WAT     H111749   1.343   2.055   5.187  1.4355  0.4333  1.0363
 3846WAT     H211750   1.297   2.193   5.146  0.3706 -0.2619 -0.1651
 3847WAT      O11751   1.934   2.291   1.539 -0.2475  0.2748  0.4433
 3847WAT     H111752   1.880   2.368   1.525 -0.4617  0.1060  0.3304
 3847WAT     H211753   1.951   2.257   1.451 -2.8949 -1.6873  0.5670
 3848WAT      O11754   0.056   1.102   2.187  0.4689 -0.4156 -0.1736
 3848WAT     H111755  -0.022   1.149   2.215  0.0975 -0.2546 -1.4325
 3848WAT     H211756   0.066   1.125   2.094  1.5292 -1.0908 -0.2414
 3849WAT      O11757   4.922   5.053   4.410 -0.2349  0.2513 -0.4658
 3849WAT     H111758   4.941   4.981   4.471  0.0468  0.7195  0.0066
 3849WAT     H211759   4.968   5.128   4.447 -2.0057  1.1401  0.0492
 3850WAT      O11760   1.477   1.276   3.741 -0.2687  0.4522  0.0511
 3850WAT     H111761   1.435   1.297   3.657 -0.3753  1.3826  0.3276
 3850WAT     H211762   1.550   1.219   3.717  0.3553  1.5627 -0.8073
 3851WAT      O11763   1.448   5.180   5.540 -0.0974  0.1164  0.0590
 3851WAT     H111764   1.372   5.195   5.485  0.2486 -0.1593 -0.5047
 3851WAT     H211765   1.419   5.202   5.628 -0.9792 -0.4673 -0.0719
 3852WAT      O11766   3.926   1.281   5.167 -0.2026  0.6704 -0.2314
 3852WAT     H111767   3.933   1.369   5.129 -1.2642  1.1479  0.6293
 3852WAT     H211768   3.861   1.290   5.236 -1.3303 -1.0941 -0.9876
 3853WAT      O11769   2.984   3.567   4.575 -0.4097 -0.0696 -0.8344
 3853WAT     H111770   3.071   3.607   4.565 -0.5171  0.1930 -0.7167
 3853WAT     H211771   2.983   3.534   4.665 -0.6326  0.4087 -0.6598
 3854WAT      O11772   3.201   0.912   3.001 -0.2903  0.2288  0.3627
 3854WAT     H111773   3.280   0.911   2.948 -0.8403 -1.7719 -0.5213
 3854WAT     H211774   3.130   0.923   2.938 -0.8688 -0.8697  0.7889
 3855WAT      O11775   1.273   4.889   3.853  0.0693  0.7836  0.6285
 3855WAT     H111776   1.227   4.915   3.774  1.9793  0.4159 -0.6625
 3855WAT     H211777   1.228   4.935   3.924 -1.9128  0.8163 -0.6010
 3856WAT      O11778   2.761   4.063   4.981 -0.1966 -0.0862 -0.0239
 3856WAT     H111779   2.695   4.124   5.016  1.7655  2.1697 -0.0128
 3856WAT     H211780   2.773   4.091   4.890  0.3656 -0.8379 -0.1867
 3857WAT      O11781   1.668   1.047   3.679 -0.1581  0.0976  0.0956
 3857WAT     H111782   1.712   1.059   3.595 -0.6414  1.6385  0.0427
 3857WAT     H211783   1.738   1.046   3.744  0.4130 -2.9710 -0.4060
 3858WAT      O11784   1.325   4.194   0.625  0.2308 -0.1904 -0.0961
 3858WAT     H111785   1.337   4.134   0.552  4.9186  1.2083 -0.7512
 3858WAT     H211786   1.323   4.138   0.703  0.5121 -1.3811 -0.9296
 3859WAT      O11787   1.472   5.438   5.067  0.3547  0.0606  0.3239
 3859WAT     H111788   1.442   5.374   5.133 -1.1684 -0.0592 -0.4378
 3859WAT     H211789   1.433   5.408   4.985 -0.7738  2.1834  0.0137
 3860WAT      O11790   2.144   0.154   1.944 -0.0455  0.3916 -0.6479
 3860WAT     H111791   2.144   0.181   1.852 -2.4891  1.7751 -0.3097
 3860WAT     H211792   2.107   0.228   1.992  3.1876  0.6324  1.8436
 3861WAT      O11793   3.656   5.638   1.457  0.4157  0.0458 -0.0315
 3861WAT     H111794   3.672   5.563   1.515 -3.1085 -1.0290 -0.2106
 3861WAT     H211795   3.696   5.712   1.503  0.9348 -1.3595  1.9520
 3862WAT      O11796   2.336   0.808   2.279 -0.7531 -0.6158  0.2640
 3862WAT     H111797   2.331   0.902   2.259 -1.2433 -0.9456 -1.2456
 3862WAT     H211798   2.411   0.777   2.228 -1.7408 -1.3892 -0.7695
 3863WAT      O11799   2.243   1.543   2.894 -0.4208  0.4909  0.1870
 3863WAT     H111800   2.163   1.595   2.891 -1.2099 -0.6058  1.4891
 3863WAT     H211801   2.265   1.537   2.987  1.1442  0.6996 -0.1386
 3864WAT      O11802   1.915   4.115   3.959  0.3035 -0.3467  0.2059
 3864WAT     H111803   1.929   4.106   3.865 -1.3299 -0.7945 -0.0171
 3864WAT     H211804   1.820   4.114   3.970  0.1234  4.4058  1.3956
 3865WAT      O11805   1.938   1.216   3.488 -0.0500  0.8541 -0.1513
 3865WAT     H111806   1.892   1.137   3.457  1.6131 -0.1628 -0.1338
 3865WAT     H211807   2.001   1.183   3.552  1.2098  2.1156 -0.7085
 3866WAT      O11808   2.605   0.434   3.708  0.1820 -0.4785  0.3983
 3866WAT     H111809   2.560   0.508   3.750 -0.7535 -0.7087 -0.1692
 3866WAT     H211810   2.667   0.476   3.648  0.3389 -0.1568  0.7747
 3867WAT      O11811   1.211   3.104   3.061  0.0721 -0.5202 -0.4156
 3867WAT     H111812   1.225   3.163   2.987  2.3256 -1.8228 -1.1274
 3867WAT     H211813   1.238   3.018   3.029  1.4817 -1.0859  1.9776
 3868WAT      O11814   4.983   4.112   2.932  0.2650  0.1488 -0.1658
 3868WAT     H111815   4.973   4.104   2.837  0.1160 -0.1637 -0.1260
 3868WAT     H211816   4.962   4.203   2.951  0.4731  0.2590 -0.4557
 3869WAT      O11817   0.464   3.568   3.281  0.6631  0.1364  0.4551
 3869WAT     H111818   0.408   3.640   3.311  0.6895 -0.3473  1.6826
 3869WAT     H211819   0.444   3.560   3.188  0.6033  1.6858  0.3104
 3870WAT      O11820   0.057   3.058   3.546  0.7542  0.0217 -0.3409
 3870WAT     H111821   0.049   3.119   3.473 -0.9188  0.4546  0.1617
 3870WAT     H211822   0.151   3.040   3.552  1.5015  3.3401  0.0973
 3871WAT      O11823   2.259   0.079   4.368  0.0928  0.4895  0.3033
 3871WAT     H111824   2.275   0.003   4.424  0.6584  0.3584 -0.0304
 3871WAT     H211825   2.257   0.044   4.279 -0.5086  0.7420  0.2102
 3872WAT      O11826   2.088   1.290   3.114  0.2663  0.3812  0.9120
 3872WAT     H111827   2.153   1.356   3.139  1.0019 -0.2893  0.7756
 3872WAT     H211828   2.117   1.210   3.156  0.7425 -0.4373 -0.8928
 3873WAT      O11829   1.262   4.476   4.837  0.3797  0.1335  0.1792
 3873WAT     H111830   1.287   4.413   4.904  1.7758  0.8068  0.3235
 3873WAT     H211831   1.253   4.424   4.757 -0.7074 -0.5754  0.7321
 3874WAT      O11832   3.283   3.682   0.237 -0.5365 -0.0082 -0.1571
 3874WAT     H111833   3.216   3.749   0.226 -1.7973 -1.1545  0.3121
 3874WAT     H211834   3.339   3.715   0.307 -0.6676  0.9016 -0.4715
 3875WAT      O11835   3.434   5.591   2.381 -0.1235 -0.2161 -0.4750
 3875WAT     H111836   3.454   5.622   2.469 -0.0454 -0.9854 -0.2097
 3875WAT     H211837   3.338   5.594   2.375 -0.3117 -2.3222  0.4959
 3876WAT      O11838   1.896   1.140   2.033  0.6443  0.7148 -0.5933
 3876WAT     H111839   1.957   1.138   1.960  0.9683 -0.5637 -0.3113
 3876WAT     H211840   1.941   1.094   2.103 -0.6961 -0.4332 -0.4429
 3877WAT      O11841   3.287   1.729   3.180 -0.1905  0.0453  0.6047
 3877WAT     H111842   3.226   1.668   3.140  0.7961  0.8392 -2.3993
 3877WAT     H211843   3.341   1.675   3.238  1.0634 -2.2004 -2.3756
 3878WAT      O11844   3.641   5.347   2.810 -0.4139 -0.1496  0.2195
 3878WAT     H111845   3.732   5.346   2.839 -0.0963 -0.3963 -0.7646
 3878WAT     H211846   3.646   5.336   2.715 -1.3399  2.1968 -0.1627
 3879WAT      O11847   2.094   2.158   3.198 -1.0249 -0.1376  0.2527
 3879WAT     H111848   2.177   2.177   3.154 -1.4517  0.5348 -0.2735
 3879WAT     H211849   2.046   2.102   3.137 -1.7699  1.0955 -0.3260
 3880WAT      O11850   2.030   2.939   0.448  0.2288 -0.0614  0.2690
 3880WAT     H111851   1.966   3.004   0.478 -1.3148 -2.0701  1.6333
 3880WAT     H211852   2.048   2.886   0.526  2.1462 -0.7143 -0.5638
 3881WAT      O11853   3.163   4.306   2.772 -0.1021 -0.0963 -0.3417
 3881WAT     H111854   3.137   4.336   2.859 -2.4354 -1.2975 -0.5332
 3881WAT     H211855   3.112   4.225   2.758  0.5818 -0.2221 -2.6016
 3882WAT      O11856   2.624   0.940   0.460  0.3017  0.1780  0.1889
 3882WAT     H111857   2.603   1.034   0.459  0.2367  0.2832 -3.6019
 3882WAT     H211858   2.717   0.936   0.483  1.6935  1.7759 -4.2516
 3883WAT      O11859   2.251   3.179   1.562 -0.1163  0.3617 -0.2798
 3883WAT     H111860   2.217   3.117   1.497  0.8938 -0.6056  0.0825
 3883WAT     H211861   2.277   3.124   1.636  1.8012  1.0887 -0.3604
 3884WAT      O11862   3.018   1.258   2.211 -1.0255  0.3935 -0.5357
 3884WAT     H111863   3.047   1.274   2.301 -1.9904  1.3662 -0.3677
 3884WAT     H211864   3.009   1.345   2.173 -1.2461  0.0153 -1.3752
 3885WAT      O11865   2.020   0.866   3.674 -0.1613  0.2426 -0.7676
 3885WAT     H111866   2.106   0.848   3.635  0.1555 -0.1534  0.0809
 3885WAT     H211867   1.982   0.779   3.688 -0.6032  0.4105 -0.9296
 3886WAT      O11868   1.748   1.261   4.689 -0.0707 -0.1409 -0.1533
 3886WAT     H111869   1.770   1.354   4.681 -0.3624  0.0086  0.7506
 3886WAT     H211870   1.735   1.247   4.782 -0.1507 -1.0693 -0.2958
 3887WAT      O11871   2.470   5.285   2.922 -0.0749  0.1807 -0.1030
 3887WAT     H111872   2.556   5.276   2.881  0.6938  1.5756  1.0847
 3887WAT     H211873   2.437   5.369   2.890 -0.9571 -0.2706 -0.4262
 3888WAT      O11874   2.414   1.535   0.282 -0.3006 -0.1710 -0.3200
 3888WAT     H111875   2.488   1.520   0.224  2.4522 -0.0882  2.8927
 3888WAT     H211876   2.424   1.469   0.351 -2.5436  0.6571  0.8887
 3889WAT      O11877   2.440   0.647   2.603 -0.3615  0.1411 -0.3599
 3889WAT     H111878   2.482   0.684   2.526 -1.5949  2.1639 -0.1120
 3889WAT     H211879   2.458   0.710   2.673 -0.6655 -0.8345  0.6291
 3890WAT      O11880   2.888   0.622   0.405  0.3330 -0.2623  0.0482
 3890WAT     H111881   2.822   0.576   0.457  1.3479 -0.7391  0.9366
 3890WAT     H211882   2.960   0.637   0.466  0.8900  0.6148 -0.8028
 3891WAT      O11883   0.734   3.785   3.509  0.3149  0.5887  0.3210
 3891WAT     H111884   0.811   3.826   3.548  0.1692  0.2284  0.9977
 3891WAT     H211885   0.661   3.836   3.543  0.1478 -0.0834  0.9909
 3892WAT      O11886   1.994   2.026   5.753 -0.4694 -0.1569 -0.2080
 3892WAT     H111887   2.037   2.096   5.705 -1.4446  1.0316  0.5983
 3892WAT     H211888   1.901   2.048   5.750 -0.8490 -1.6481 -0.2902
 3893WAT      O11889   2.306   1.165   3.876 -0.1999  0.4229 -0.3426
 3893WAT     H111890   2.259   1.095   3.920 -0.9187  0.0634 -1.6144
 3893WAT     H211891   2.331   1.225   3.946 -0.3973 -0.6192  0.6547
 3894WAT      O11892   0.723   2.073   2.683  0.5827 -0.1829  0.4247
 3894WAT     H111893   0.660   2.085   2.754  0.6614  1.3169  0.2660
 3894WAT     H211894   0.809   2.070   2.727  0.4802 -1.6249  0.5831
 3895WAT      O11895   0.964   5.467   5.393  0.9728  0.3912  0.2809
 3895WAT     H111896   0.982   5.546   5.343 -0.6919  2.1541  2.2648
 3895WAT     H211897   1.030   5.467   5.462 -0.3428  1.3544  1.6050
 3896WAT      O11898   0.981   1.824   4.394  0.0718  0.2240 -0.6882
 3896WAT     H111899   0.899   1.814   4.347 -1.2324  1.1563  1.2724
 3896WAT     H211900   0.982   1.753   4.457 -0.3141  1.4578  0.7609
 3897WAT      O11901   4.000   0.601   2.463 -0.2645 -0.2355 -0.1887
 3897WAT     H111902   4.058   0.540   2.508  1.0395  0.5862 -0.6980
 3897WAT     H211903   4.056   0.642   2.397 -1.5150  0.3618 -0.9099
 3898WAT      O11904   2.068   0.231   3.714  0.5317  0.5540 -0.0261
 3898WAT     H111905   1.974   0.213   3.709  0.8581 -2.6190  2.4423
 3898WAT     H211906   2.109   0.145   3.716  3.2614  1.7560  2.2139
 3899WAT      O11907   3.139   4.501   5.457  0.1491  0.0704  0.4800
 3899WAT     H111908   3.113   4.539   5.541 -2.2085 -0.7162  0.1962
 3899WAT     H211909   3.188   4.570   5.413  0.2259  0.9894  1.9554
 3900WAT      O11910   3.786   0.201   1.558  0.1641 -0.4097 -0.1169
 3900WAT     H111911   3.780   0.253   1.638  1.7953  0.3584 -0.4289
 3900WAT     H211912   3.746   0.256   1.491  2.2934  0.7552 -0.5358
 3901WAT      O11913   3.705   0.514   3.199  0.1516  0.7266  0.3679
 3901WAT     H111914   3.798   0.533   3.209  0.0447  1.5484 -0.1903
 3901WAT     H211915   3.688   0.524   3.106 -0.3619 -0.0844  0.3585
 3902WAT      O11916   2.203   2.101   0.518  0.1120 -0.4225  0.4353
 3902WAT     H111917   2.185   2.188   0.554  1.1265  0.0575 -0.2089
 3902WAT     H211918   2.155   2.042   0.576  0.0520  0.4979  1.3545
 3903WAT      O11919   3.891   2.756   4.102  0.2402 -0.0982  0.6877
 3903WAT     H111920   3.818   2.697   4.117 -0.7635  1.0726  0.6375
 3903WAT     H211921   3.966   2.699   4.087 -0.1534 -1.3654  2.9888
 3904WAT      O11922   3.070   5.360   0.773  0.1772 -0.0889 -0.0370
 3904WAT     H111923   3.135   5.395   0.713  0.9073 -0.6803  0.3870
 3904WAT     H211924   3.006   5.316   0.716  0.0894  0.5676 -0.4581
 3905WAT      O11925   2.240   2.695   2.356 -0.0127  0.1351 -0.4440
 3905WAT     H111926   2.212   2.779   2.321 -0.7584 -0.7333 -2.0189
 3905WAT     H211927   2.160   2.654   2.388  0.0990 -0.5666 -1.0291
 3906WAT      O11928   0.115   0.317   1.835 -0.2961 -0.6147  0.7520
 3906WAT     H111929   0.120   0.295   1.743  0.6622  2.6989 -0.1290
 3906WAT     H211930   0.203   0.301   1.869  0.6508  2.0988 -0.0923
 3907WAT      O11931   2.430   1.175   1.029 -0.0342 -0.5943  0.2812
 3907WAT     H111932   2.372   1.114   0.983  0.6787 -0.9859 -0.1253
 3907WAT     H211933   2.513   1.168   0.981  0.2233  0.2616  0.5975
 3908WAT      O11934   1.687   1.299   0.388 -0.6635 -0.3008  0.2609
 3908WAT     H111935   1.597   1.268   0.396 -1.2706  1.6481  2.0460
 3908WAT     H211936   1.704   1.300   0.294 -2.6553 -0.3583 -0.1447
 3909WAT      O11937   2.706   1.289   0.186  0.1910 -0.1013  0.1400
 3909WAT     H111938   2.639   1.343   0.146 -0.4123  0.4993  1.8553
 3909WAT     H211939   2.718   1.216   0.125 -0.7929  0.6499 -1.0013
 3910WAT      O11940   2.812   0.449   5.619 -0.5234 -0.3417  0.0320
 3910WAT     H111941   2.765   0.527   5.587 -1.5174 -0.4753  1.1253
 3910WAT     H211942   2.883   0.485   5.673 -0.6245 -0.1796  0.0593
 3911WAT      O11943   2.669   5.179   0.211  0.1831 -0.3978 -0.3741
 3911WAT     H111944   2.762   5.160   0.222 -0.2536 -2.7827 -0.3713
 3911WAT     H211945   2.667   5.267   0.173  2.5866 -1.3358 -3.0524
 3912WAT      O11946   2.283   5.171   5.625 -0.0081  0.0335  0.2694
 3912WAT     H111947   2.272   5.211   5.539  0.6322  1.0677  0.6521
 3912WAT     H211948   2.372   5.136   5.624 -0.8977 -2.4416 -0.4547
 3913WAT      O11949   0.992   1.916   3.184 -0.6620 -0.5680  0.6626
 3913WAT     H111950   0.920   1.855   3.172 -1.1878  0.0677  0.4997
 3913WAT     H211951   1.020   1.939   3.095 -0.6944 -0.3133  0.7157
 3914WAT      O11952   3.485   4.104   5.541  0.7138  0.5578  0.1172
 3914WAT     H111953   3.495   4.103   5.446 -1.7691 -0.8368 -0.2265
 3914WAT     H211954   3.410   4.046   5.557  1.3039  0.4648  2.9611
 3915WAT      O11955   1.757   0.881   4.904 -0.7580  0.2614  0.1049
 3915WAT     H111956   1.663   0.866   4.903 -0.4984 -1.5712  0.0153
 3915WAT     H211957   1.782   0.878   4.996 -0.6472 -0.3165  0.0599
 3916WAT      O11958   2.425   2.024   1.185  0.0181 -0.4291 -0.6347
 3916WAT     H111959   2.493   2.080   1.147 -0.4404  0.8798  0.3722
 3916WAT     H211960   2.376   1.991   1.110 -0.1107  1.1009 -1.2553
 3917WAT      O11961   1.382   0.321   1.274 -0.1486  0.3533  0.1671
 3917WAT     H111962   1.300   0.361   1.304  0.1382  1.6917 -0.7564
 3917WAT     H211963   1.447   0.391   1.284  0.4301  0.0243 -1.1825
 3918WAT      O11964   3.777   5.388   2.122 -0.5615 -0.1711 -0.2697
 3918WAT     H111965   3.722   5.466   2.128  0.8241  0.8058  0.5085
 3918WAT     H211966   3.781   5.368   2.029 -2.2932 -0.3574 -0.3378
 3919WAT      O11967   1.811   5.471   4.696 -0.4130 -0.0911 -0.3823
 3919WAT     H111968   1.878   5.511   4.642 -1.0370  1.3303 -0.1282
 3919WAT     H211969   1.742   5.537   4.704 -0.9575 -0.7680  0.9877
 3920WAT      O11970   3.195   2.204   4.560 -0.8350  0.5164  0.1493
 3920WAT     H111971   3.272   2.231   4.510 -1.5423  1.3518 -0.5316
 3920WAT     H211972   3.169   2.283   4.607 -1.7158  0.4587 -0.2258
 3921WAT      O11973   2.405   1.443   1.900  0.2655 -0.2379  0.0247
 3921WAT     H111974   2.379   1.507   1.967  2.0695 -0.8613  1.3810
 3921WAT     H211975   2.355   1.469   1.823 -2.6559 -0.0741  1.8135
 3922WAT      O11976   2.118   3.085   0.867 -0.8942 -0.3016  0.2016
 3922WAT     H111977   2.179   3.127   0.807 -0.2753 -0.0432  0.9982
 3922WAT     H211978   2.076   3.157   0.915 -1.1025 -0.5166  0.3491
 3923WAT      O11979   1.528   3.995   2.670  0.3067 -0.6095 -0.6057
 3923WAT     H111980   1.543   3.981   2.764  0.0576 -0.3162 -0.5212
 3923WAT     H211981   1.447   4.047   2.666  0.8071  0.1615 -0.9495
 3924WAT      O11982   4.595   5.404   2.723 -0.7822  0.5355 -0.3553
 3924WAT     H111983   4.556   5.398   2.636  0.1679  1.0988 -0.8394
 3924WAT     H211984   4.684   5.436   2.707 -0.1109 -0.6909  0.7022
 3925WAT      O11985   4.960   1.429   4.187  0.0026  0.8418  0.2182
 3925WAT     H111986   4.878   1.417   4.235  0.2855  1.8466  0.9942
 3925WAT     H211987   4.948   1.382   4.105 -0.3415 -1.3232  1.4468
 3926WAT      O11988   2.844   2.223   2.538 -0.4414 -0.1479  0.1567
 3926WAT     H111989   2.822   2.216   2.631 -1.3041 -0.8083 -0.0893
 3926WAT     H211990   2.935   2.192   2.533  0.4081  2.0006  1.0839
 3927WAT      O11991   2.857   1.545   4.391  0.0322 -0.1898  0.6231
 3927WAT     H111992   2.774   1.589   4.379  1.0336  1.0565 -3.1060
 3927WAT     H211993   2.918   1.591   4.334  2.5171 -3.0502  0.6654
 3928WAT      O11994   2.870   2.932   2.219 -0.5349 -0.5231 -0.2278
 3928WAT     H111995   2.817   2.906   2.145 -0.5510 -0.8429 -0.1062
 3928WAT     H211996   2.822   3.005   2.259  0.1811  0.6043 -1.3550
 3929WAT      O11997   1.610   2.468   5.637 -0.0359 -0.4991  0.0657
 3929WAT     H111998   1.532   2.523   5.635 -0.4409 -0.9854  1.6825
 3929WAT     H211999   1.679   2.525   5.672  0.6597  0.2562 -2.3362
 3930WAT      O12000   0.655   2.401   4.326  0.5285 -0.2150  0.3195
 3930WAT     H112001   0.584   2.461   4.306 -0.2783 -1.7665 -1.8191
 3930WAT     H212002   0.655   2.394   4.422 -1.6000  0.5040  0.4110
 3931WAT      O12003   2.343   2.504   2.825  0.5455 -0.1410  0.4964
 3931WAT     H112004   2.340   2.560   2.748 -2.0977 -0.9885 -0.1121
 3931WAT     H212005   2.349   2.415   2.789 -1.3834 -0.5932  1.1903
 3932WAT      O12006   1.955   1.413   5.669 -0.3105 -0.3513 -0.5440
 3932WAT     H112007   1.929   1.503   5.651 -0.8745 -0.2791  0.5758
 3932WAT     H212008   2.041   1.404   5.627 -0.4070  0.5892 -0.9705
 3933WAT      O12009   1.308   4.330   3.733  0.4250 -0.0754 -0.0691
 3933WAT     H112010   1.319   4.241   3.766 -0.2441  0.0761  0.5987
 3933WAT     H212011   1.283   4.381   3.810  0.5454  0.6385 -0.4925
 3934WAT      O12012   0.916   0.404   2.315 -0.1878 -0.0097 -0.1772
 3934WAT     H112013   0.835   0.367   2.350 -0.0416  0.3612  0.5740
 3934WAT     H212014   0.953   0.453   2.389  1.6782 -1.7116  0.0832
 3935WAT      O12015   1.485   2.331   3.846 -0.1892 -0.0168 -0.3436
 3935WAT     H112016   1.531   2.385   3.910  1.6642 -1.4437 -0.3691
 3935WAT     H212017   1.413   2.385   3.815 -0.2014  1.2797  1.7933
 3936WAT      O12018   2.121   5.542   5.580 -0.6191  0.4567 -0.2595
 3936WAT     H112019   2.187   5.578   5.520 -0.0165 -0.4795 -0.1702
 3936WAT     H212020   2.171   5.513   5.656 -1.0286 -0.8591 -0.4620
 3937WAT      O12021   1.186   3.787   4.894  0.1453 -0.0694  0.7448
 3937WAT     H112022   1.161   3.715   4.953  0.2167  0.7924  1.8576
 3937WAT     H212023   1.231   3.849   4.951  1.4926  0.1403 -0.5037
 3938WAT      O12024   0.826   3.327   5.404 -0.3175 -0.0986  0.4488
 3938WAT     H112025   0.767   3.289   5.469 -3.6915  2.2247 -0.9416
 3938WAT     H212026   0.770   3.344   5.328  2.3827  1.5542 -1.3381
 3939WAT      O12027   3.218   2.104   2.062  0.0508 -0.2064  0.1010
 3939WAT     H112028   3.297   2.054   2.041  0.8111  0.7219  0.7085
 3939WAT     H212029   3.221   2.179   2.004 -0.2336 -0.0144  0.3353
 3940WAT      O12030   1.257   3.440   5.407  0.2988  0.4016 -0.6362
 3940WAT     H112031   1.188   3.499   5.436 -0.2804  0.4300 -2.0068
 3940WAT     H212032   1.326   3.497   5.373 -0.2847  0.3271 -2.0123
 3941WAT      O12033   2.594   4.612   0.922  0.1358  0.6070 -0.1286
 3941WAT     H112034   2.612   4.697   0.882 -2.6683  1.6837  0.6688
 3941WAT     H212035   2.506   4.621   0.958  0.3193 -2.1971  1.2475
 3942WAT      O12036   2.336   5.510   2.804 -0.4181  0.3223 -0.5022
 3942WAT     H112037   2.312   5.594   2.844  0.2168  0.0293  0.5136
 3942WAT     H212038   2.263   5.491   2.744 -2.0460  0.1723  1.4283
 3943WAT      O12039   3.145   0.165   3.205 -0.2105  0.0530  0.4425
 3943WAT     H112040   3.135   0.210   3.289 -1.6393  0.4000  0.1144
 3943WAT     H212041   3.161   0.074   3.228  1.8043  0.5014  1.1071
 3944WAT      O12042   2.251   3.189   2.687 -0.5942  0.2065 -0.6894
 3944WAT     H112043   2.303   3.188   2.767  1.2362  0.2967 -1.8046
 3944WAT     H212044   2.222   3.098   2.676 -0.1561  0.0200 -0.3403
 3945WAT      O12045   1.643   1.685   2.798 -0.6304 -0.3590 -0.2374
 3945WAT     H112046   1.704   1.622   2.760 -1.1266 -0.2728 -1.1871
 3945WAT     H212047   1.605   1.639   2.873  1.6910  0.1031  1.3451
 3946WAT      O12048   2.964   1.796   2.282 -0.7139  0.2298 -0.4818
 3946WAT     H112049   2.957   1.757   2.370 -1.9000  1.2597 -0.0784
 3946WAT     H212050   2.976   1.889   2.299 -3.0290  0.7492 -1.3788
 3947WAT      O12051   1.291   2.181   3.412  0.1910 -0.1975  0.1532
 3947WAT     H112052   1.218   2.146   3.360  0.0244 -0.5963  0.6391
 3947WAT     H212053   1.361   2.194   3.349 -0.4638  0.6983 -0.4187
 3948WAT      O12054   2.226   2.733   1.015  0.1803  0.0688 -0.0013
 3948WAT     H112055   2.295   2.680   1.055 -0.9759 -1.5476 -0.0388
 3948WAT     H212056   2.232   2.714   0.921  0.6718  1.1585 -0.2063
 3949WAT      O12057   1.334   5.252  -0.033  0.1721 -0.4430 -0.4348
 3949WAT     H112058   1.359   5.174   0.016 -2.0195 -0.9851 -0.1025
 3949WAT     H212059   1.346   5.324   0.029 -2.5762 -1.1168  1.0338
 3950WAT      O12060   3.728   1.154   2.911  0.1001 -0.3442 -0.3254
 3950WAT     H112061   3.814   1.138   2.950 -0.3963  0.8139  1.3156
 3950WAT     H212062   3.671   1.173   2.985 -1.2766  0.2689 -1.4940
 3951WAT      O12063   2.050   1.012   1.372 -0.1457  0.2483 -0.0635
 3951WAT     H112064   2.078   0.921   1.374  1.0509  0.5405 -1.8697
 3951WAT     H212065   2.097   1.052   1.446  0.1725 -0.3576  0.0728
 3952WAT      O12066   1.250   1.894   2.671  0.2178  0.2465 -0.8769
 3952WAT     H112067   1.332   1.851   2.647 -1.1452 -0.9216 -3.9622
 3952WAT     H212068   1.190   1.873   2.599 -3.0742  0.3188  1.6121
 3953WAT      O12069   2.776   0.935   3.068  0.1775 -0.4652 -0.1269
 3953WAT     H112070   2.692   0.961   3.106 -0.7715 -3.9402  0.4747
 3953WAT     H212071   2.839   0.949   3.139 -0.4169 -0.6069  0.4387
 3954WAT      O12072   3.985   3.090   3.613 -0.2034 -0.0107  0.2240
 3954WAT     H112073   3.989   2.996   3.632  1.0067  0.3714  2.0929
 3954WAT     H212074   3.898   3.117   3.645  0.5238 -0.0141  2.3216
 3955WAT      O12075   3.071   0.307   0.608  0.0985  0.5626  0.1481
 3955WAT     H112076   2.987   0.315   0.562  0.7474 -0.1923 -1.2240
 3955WAT     H212077   3.115   0.233   0.566  1.3890  0.8368  0.9526
 3956WAT      O12078   0.614   4.555   4.335  0.0530  0.8977 -0.0687
 3956WAT     H112079   0.651   4.530   4.250 -2.0294  0.3657 -0.8698
 3956WAT     H212080   0.547   4.620   4.315 -1.3588 -0.1626  1.0135
 3957WAT      O12081   2.109   4.798   5.626  0.1543  0.0502 -0.3891
 3957WAT     H112082   2.108   4.747   5.545 -1.3519  0.0819 -0.4152
 3957WAT     H212083   2.084   4.736   5.694  1.2992  0.0532  0.0493
 3958WAT      O12084   1.791   1.333   2.500 -0.2183 -0.5584 -0.1474
 3958WAT     H112085   1.714   1.278   2.482 -0.5117 -0.6434  1.2177
 3958WAT     H212086   1.769   1.379   2.581  1.2244 -0.6940  0.3545
 3959WAT      O12087   1.155   1.862   2.919  0.0401  0.2556  0.1419
 3959WAT     H112088   1.184   1.865   2.828 -0.2002  1.0863  0.0815
 3959WAT     H212089   1.223   1.908   2.968  0.4151 -0.6148  0.4653
 3960WAT      O12090   3.532   1.309   5.493 -0.1468  0.0836  0.7446
 3960WAT     H112091   3.445   1.348   5.501 -0.0802  0.8065 -1.3858
 3960WAT     H212092   3.516   1.218   5.468 -0.3196  0.4370 -0.4832
 3961WAT      O12093   2.575   2.718   3.156  0.4909 -0.4030  0.1591
 3961WAT     H112094   2.659   2.688   3.122  0.2517 -1.2413  0.2698
 3961WAT     H212095   2.565   2.671   3.239  0.2571  0.2641  0.5111
 3962WAT      O12096   1.744   3.421   5.000  0.1752 -0.3235  0.1175
 3962WAT     H112097   1.763   3.498   4.946  0.0634  0.8678  1.6980
 3962WAT     H212098   1.818   3.362   4.984 -0.5088 -0.6255 -2.3276
 3963WAT      O12099   2.785   2.404   3.319 -0.1058 -0.1179  0.1616
 3963WAT     H112100   2.818   2.453   3.395  0.6292 -2.1473  1.2213
 3963WAT     H212101   2.717   2.348   3.356 -1.4469  0.5712 -1.1670
 3964WAT      O12102   2.642   1.157   0.842  0.2782 -0.3587  0.0298
 3964WAT     H112103   2.636   1.249   0.815  1.9967 -0.1513  0.2388
 3964WAT     H212104   2.651   1.108   0.760 -0.8477 -0.3753 -0.0939
 3965WAT      O12105   1.351   5.409   2.113 -0.2441  0.3064  0.3984
 3965WAT     H112106   1.417   5.437   2.049 -1.3365  0.8357 -0.5302
 3965WAT     H212107   1.349   5.480   2.177  1.7219 -0.7671  1.7774
 3966WAT      O12108   3.221   2.645   1.197  0.3505  0.1564  0.8059
 3966WAT     H112109   3.307   2.608   1.177  0.3543  0.1585  0.8180
 3966WAT     H212110   3.221   2.654   1.293  0.6320  0.8853  0.7420
 3967WAT      O12111   0.604   0.737   2.041  0.3007 -0.6748  0.3081
 3967WAT     H112112   0.674   0.686   2.000 -0.0535 -0.9302  0.0132
 3967WAT     H212113   0.529   0.677   2.044  0.3224 -0.6703  1.3482
 3968WAT      O12114   1.893   1.720   2.451 -0.5815  0.5445 -0.3655
 3968WAT     H112115   1.837   1.783   2.407 -1.3868  0.7396  0.8749
 3968WAT     H212116   1.866   1.635   2.417 -1.7894  0.6222  0.3543
 3969WAT      O12117   1.694   2.985   5.109 -0.0292  0.2270  0.5310
 3969WAT     H112118   1.767   2.988   5.171 -0.2605 -3.8723  1.2807
 3969WAT     H212119   1.621   2.950   5.159 -1.1977 -0.0762 -1.2954
 3970WAT      O12120   3.761   1.768   2.606  0.3960 -0.3959 -0.6259
 3970WAT     H112121   3.673   1.739   2.583  0.5834 -1.2678 -0.2515
 3970WAT     H212122   3.756   1.790   2.699  0.0008  1.7878 -1.1040
 3971WAT      O12123   2.291   1.919   0.094  0.5025  0.1206  0.0871
 3971WAT     H112124   2.222   1.881   0.147 -1.7450  3.2138 -0.3597
 3971WAT     H212125   2.337   1.978   0.153  1.3704 -0.2717 -0.1804
 3972WAT      O12126   4.414   3.014   2.898 -0.1083 -0.2156  0.0116
 3972WAT     H112127   4.383   2.940   2.951  0.6269 -0.3918  0.2201
 3972WAT     H212128   4.355   3.086   2.920 -0.5830 -0.6329  0.1208
 3973WAT      O12129   1.071   2.308   3.531 -0.2605  0.3935  0.6712
 3973WAT     H112130   1.158   2.303   3.491 -0.8013  0.6882 -0.5953
 3973WAT     H212131   1.056   2.402   3.544 -0.6812  0.3918  0.2086
 3974WAT      O12132   4.342   1.945   4.567  0.0587  0.2344 -0.1490
 3974WAT     H112133   4.304   1.893   4.496  0.1829 -1.2440  0.8358
 3974WAT     H212134   4.417   1.894   4.597 -0.9131 -0.0121  2.1008
 3975WAT      O12135   1.494   0.820   2.560 -0.3735  0.2002  0.1643
 3975WAT     H112136   1.568   0.765   2.588 -0.5783 -0.6090 -0.8479
 3975WAT     H212137   1.526   0.865   2.482  0.1920  2.4516  1.5926
 3976WAT      O12138   4.584   3.372   4.084 -0.2101  0.3322  0.7777
 3976WAT     H112139   4.517   3.375   4.016  0.3328  0.4124  0.2490
 3976WAT     H212140   4.642   3.300   4.059  0.7758  1.2262  0.4089
 3977WAT      O12141   2.855   2.668   0.119  0.2691 -0.2770  0.4192
 3977WAT     H112142   2.876   2.578   0.097 -0.6156 -0.2883 -0.4552
 3977WAT     H212143   2.781   2.690   0.062  0.7720  1.1475  0.2744
 3978WAT      O12144   1.237   4.679   1.469 -0.0590  0.0950 -0.1575
 3978WAT     H112145   1.247   4.765   1.509 -0.9869  1.9871 -3.5214
 3978WAT     H212146   1.144   4.658   1.480 -0.1851  0.3378 -0.6888
 3979WAT      O12147   3.536   0.898   0.580  0.5139  0.1541 -0.0052
 3979WAT     H112148   3.518   0.899   0.486  0.2447 -0.1483  0.0408
 3979WAT     H212149   3.450   0.908   0.621  0.6585  0.5385  0.2093
 3980WAT      O12150   2.432   1.149   3.435 -0.2406 -0.4274  0.0163
 3980WAT     H112151   2.470   1.120   3.518  1.6281  0.7771 -0.3590
 3980WAT     H212152   2.446   1.244   3.434  1.1535 -0.5799 -2.2822
 3981WAT      O12153   2.745   1.596   4.727  0.0352  0.1833  0.1477
 3981WAT     H112154   2.781   1.586   4.639 -0.5509  1.7435 -0.3078
 3981WAT     H212155   2.817   1.635   4.778 -0.1315  0.7929 -0.0723
 3982WAT      O12156   1.692   1.304   3.955  0.5676 -0.3122 -0.2010
 3982WAT     H112157   1.707   1.301   3.860  1.5560  0.2704 -0.0784
 3982WAT     H212158   1.652   1.220   3.975 -0.9442  0.0839 -1.3376
 3983WAT      O12159   1.989   2.574   3.479  0.2765 -0.2181 -0.4651
 3983WAT     H112160   1.903   2.552   3.515  0.0060 -1.5213 -1.8376
 3983WAT     H212161   1.971   2.642   3.414  0.5305  0.7296  0.4150
 3984WAT      O12162   1.710   5.214   4.412 -0.4216 -0.1181 -0.0718
 3984WAT     H112163   1.714   5.309   4.420  2.6062 -0.1807  0.2626
 3984WAT     H212164   1.769   5.193   4.339  1.2217 -1.8245  1.6185
 3985WAT      O12165   1.208   5.374   5.584 -0.2378 -0.4558 -0.4616
 3985WAT     H112166   1.225   5.463   5.615  0.5369 -0.0489 -1.9428
 3985WAT     H212167   1.232   5.317   5.658 -0.4762  0.5487  0.4006
 3986WAT      O12168   1.551   3.302   2.290  0.9151 -0.1295 -0.5338
 3986WAT     H112169   1.608   3.348   2.352  0.2383 -0.1356  0.1143
 3986WAT     H212170   1.464   3.340   2.306  0.1999 -2.0433  0.4725
 3987WAT      O12171   2.858   2.751   0.939 -0.2872 -0.5943  0.3731
 3987WAT     H112172   2.769   2.717   0.930  0.0477 -1.2850 -0.4401
 3987WAT     H212173   2.895   2.699   1.010 -1.1066  0.9803  2.0410
 3988WAT      O12174   3.521   3.798   4.098 -0.3602 -0.7446 -0.1325
 3988WAT     H112175   3.604   3.757   4.121  0.7367  0.7230 -1.2197
 3988WAT     H212176   3.491   3.841   4.178  0.8107  0.1264 -0.1489
 3989WAT      O12177   1.681   3.680   1.203  0.2530  0.2060 -0.1345
 3989WAT     H112178   1.752   3.619   1.223  0.4117  0.0242 -1.2004
 3989WAT     H212179   1.720   3.767   1.216  0.3644  0.0914  0.2906
 3990WAT      O12180   2.874   0.149   2.490 -0.2613 -0.7280  0.2256
 3990WAT     H112181   2.891   0.127   2.581 -1.2383 -0.9196  0.3661
 3990WAT     H212182   2.959   0.181   2.457 -0.2530  0.7840  1.6083
 3991WAT      O12183   2.739   3.583   3.623 -0.2363  0.1762 -0.5489
 3991WAT     H112184   2.711   3.495   3.600  1.3364 -0.0128 -1.9105
 3991WAT     H212185   2.741   3.583   3.719 -3.6333 -0.1010 -0.3613
 3992WAT      O12186   1.781   2.209   0.619  0.0195  0.9163  0.2303
 3992WAT     H112187   1.818   2.297   0.611  0.9909  0.4632 -0.6577
 3992WAT     H212188   1.762   2.183   0.529 -0.6149  0.3663  0.5170
 3993WAT      O12189   2.694   0.812   1.424 -0.1493 -0.5358 -0.7601
 3993WAT     H112190   2.616   0.765   1.396 -1.1965  0.6553  0.0418
 3993WAT     H212191   2.700   0.795   1.518 -1.1743  1.6585 -0.2092
 3994WAT      O12192   2.697   3.945   1.684  0.0864  0.2641 -0.0196
 3994WAT     H112193   2.609   3.940   1.720 -0.2377  0.8350 -0.7244
 3994WAT     H212194   2.732   3.856   1.694 -1.9247 -1.0502 -3.1302
 3995WAT      O12195   1.875   3.155   1.961 -0.0025  0.3264 -0.4159
 3995WAT     H112196   1.849   3.225   2.021  0.5620 -0.4003  0.7326
 3995WAT     H212197   1.830   3.077   1.996  0.3077 -0.1030 -0.9654
 3996WAT      O12198   3.353   2.571   4.589  0.7693 -0.4145 -0.0383
 3996WAT     H112199   3.443   2.597   4.571 -0.0693  1.1306 -2.4951
 3996WAT     H212200   3.327   2.521   4.512 -1.4930  2.1691 -1.1299
 3997WAT      O12201   3.005   1.601   1.592  0.4653 -0.2883 -0.0074
 3997WAT     H112202   3.025   1.533   1.656  1.2838 -1.2196 -1.2132
 3997WAT     H212203   2.965   1.672   1.643  2.1063 -0.5270  1.6902
 3998WAT      O12204   3.513   2.145   2.311 -0.5048  0.3758  0.1644
 3998WAT     H112205   3.532   2.165   2.219  0.2294  0.5997  0.3574
 3998WAT     H212206   3.494   2.230   2.351 -0.9798  0.2617  0.1914
 3999WAT      O12207   2.858   0.251   1.401 -0.6108 -0.0127  0.3986
 3999WAT     H112208   2.912   0.326   1.426  1.7423 -1.6531  0.5991
 3999WAT     H212209   2.771   0.271   1.435  0.3902  1.7933  2.0687
 4000WAT      O12210   3.439   0.105   0.877  0.0822 -0.8118  0.4587
 4000WAT     H112211   3.375   0.033   0.876  0.6974 -1.3615 -0.0954
 4000WAT     H212212   3.434   0.143   0.790 -1.4675  0.9585  1.2410
 4001WAT      O12213   3.192   5.197   3.147  0.1443  0.2125  0.4855
 4001WAT     H112214   3.206   5.276   3.095  1.2901  0.9356  1.8439
 4001WAT     H212215   3.097   5.193   3.159 -0.2574 -0.3462 -2.1569
 4002WAT      O12216   1.188   0.375   5.118 -0.2987 -0.3818  0.2125
 4002WAT     H112217   1.142   0.377   5.202  0.4162 -1.6261  0.6519
 4002WAT     H212218   1.264   0.432   5.130 -0.6952  0.1800  0.0951
 4003WAT      O12219   4.065   0.055   1.581  0.1598 -0.7033  0.6689
 4003WAT     H112220   4.066  -0.023   1.526 -1.0281 -0.3358  0.0924
 4003WAT     H212221   3.990   0.106   1.550  1.0151  0.7660  0.9002
 4004WAT      O12222   1.571   0.991   1.450  0.5406 -0.4184 -0.2290
 4004WAT     H112223   1.476   0.994   1.459  0.5944  0.9673  0.0451
 4004WAT     H212224   1.596   1.080   1.425  1.7810 -0.7267 -0.1642
 4005WAT      O12225   4.781   2.536   3.129  0.2905 -0.1153  0.0201
 4005WAT     H112226   4.759   2.484   3.052  0.3520  0.2085 -0.2187
 4005WAT     H212227   4.696   2.562   3.165  0.2611 -0.3196  0.0999
   4.97495   5.65703   5.83016
