Generic title
12227
    1ILE      N    1   1.578   1.585   3.816 -1.0234 -0.0668  0.3954
    1ILE     H1    2   1.627   1.505   3.854  0.1884  0.5728  0.2410
    1ILE     H2    3   1.584   1.564   3.717  0.7704 -0.0623  0.4674
    1ILE     H3    4   1.481   1.595   3.843 -1.1960 -1.8261  0.5496
    1ILE     CA    5   1.654   1.705   3.844 -0.8380  0.2977  0.1015
    1ILE     HA    6   1.620   1.773   3.765 -0.6177 -0.2298 -0.4592
    1ILE     CB    7   1.624   1.767   3.976  0.3068  0.0924  0.1168
    1ILE     HB    8   1.518   1.790   3.987  0.7056  1.3891  1.6866
    1ILE    CG2    9   1.648   1.676   4.094 -1.1098  0.8196  0.0646
    1ILE   HG21   10   1.756   1.659   4.090 -0.9829  1.3865  0.8228
    1ILE   HG22   11   1.623   1.723   4.190 -0.0993 -0.5284  1.0297
    1ILE   HG23   12   1.605   1.577   4.085  1.6628 -0.5084  0.2703
    1ILE    CG1   13   1.693   1.903   3.999 -0.2109 -0.0748  0.0269
    1ILE   HG12   14   1.679   1.965   3.911 -4.1761  1.5217  1.5033
    1ILE   HG13   15   1.798   1.880   4.016 -0.5641 -2.6473 -0.8303
    1ILE    CD1   16   1.637   1.997   4.110  0.4976  0.3185  0.1660
    1ILE   HD11   17   1.657   1.955   4.209 -0.7156 -0.5681  0.0612
    1ILE   HD12   18   1.685   2.094   4.118 -1.2034  1.0865  2.3279
    1ILE   HD13   19   1.528   2.001   4.113  0.5091  0.9261 -0.1144
    1ILE      C   20   1.804   1.666   3.829 -0.7829  0.4223  0.2319
    1ILE      O   21   1.853   1.561   3.878  0.5101  0.2371  0.2733
    2LEU      N   22   1.884   1.760   3.775 -0.1416  0.6288 -0.3571
    2LEU      H   23   1.832   1.831   3.727 -2.7888 -0.5114  0.6407
    2LEU     CA   24   2.031   1.772   3.796 -0.2449 -0.4891  0.5766
    2LEU     HA   25   2.050   1.725   3.892 -0.8793 -2.2091 -0.0985
    2LEU     CB   26   2.102   1.687   3.686  0.1825  0.2112  0.1705
    2LEU    HB2   27   2.068   1.586   3.712  1.4781 -0.7005 -1.5124
    2LEU    HB3   28   2.067   1.708   3.585  0.1128 -1.8159 -0.2776
    2LEU     CG   29   2.254   1.685   3.705  0.4693 -0.8804  0.0987
    2LEU     HG   30   2.302   1.782   3.692 -0.1021 -0.6432 -0.2486
    2LEU    CD1   31   2.294   1.622   3.844  0.2922 -0.3307 -0.4513
    2LEU   HD11   32   2.222   1.550   3.882 -1.8647  2.5245  1.3082
    2LEU   HD12   33   2.391   1.574   3.836  0.2137 -0.5465 -0.1109
    2LEU   HD13   34   2.299   1.709   3.909 -1.6653 -0.2654 -0.3288
    2LEU    CD2   35   2.295   1.597   3.592 -0.4908 -0.1866  0.2890
    2LEU   HD21   36   2.281   1.649   3.497  0.0678 -0.7906 -0.1324
    2LEU   HD22   37   2.403   1.586   3.604 -0.1605  2.2922  0.1109
    2LEU   HD23   38   2.248   1.499   3.600 -1.4661  0.1989 -0.6240
    2LEU      C   39   2.077   1.917   3.801  0.0255 -0.2569 -0.0888
    2LEU      O   40   2.002   2.008   3.750  0.0989 -0.3913  0.0840
    3ARG      N   41   2.208   1.942   3.843  0.5822 -0.0406 -0.3643
    3ARG      H   42   2.259   1.868   3.888 -0.5694  0.0317  1.1423
    3ARG     CA   43   2.281   2.069   3.849  0.3412 -0.1128 -0.1997
    3ARG     HA   44   2.263   2.126   3.758 -0.4177 -1.0183 -0.6305
    3ARG     CB   45   2.243   2.151   3.971  0.8272 -1.2172 -0.3031
    3ARG    HB2   46   2.134   2.151   3.970  0.7183  2.0242 -2.3401
    3ARG    HB3   47   2.285   2.108   4.062 -1.5625 -2.5845  0.2574
    3ARG     CG   48   2.275   2.302   3.963 -0.2092 -0.9289 -0.1463
    3ARG    HG2   49   2.382   2.306   3.944 -0.1499 -0.0762  0.3261
    3ARG    HG3   50   2.223   2.343   3.877 -0.1334 -1.3713 -0.4083
    3ARG     CD   51   2.242   2.384   4.090  0.0093  0.2040 -0.3909
    3ARG    HD2   52   2.135   2.382   4.107  0.1619  0.3957  0.6295
    3ARG    HD3   53   2.287   2.339   4.178  0.8475  2.4687  0.4164
    3ARG     NE   54   2.294   2.524   4.087  0.6747  0.1919  0.6446
    3ARG     HE   55   2.348   2.549   4.006  0.2059  1.2650  0.6352
    3ARG     CZ   56   2.293   2.617   4.186 -0.2675 -0.6684  0.1487
    3ARG    NH1   57   2.236   2.591   4.298 -0.7087  0.1892 -0.3090
    3ARG   HH11   58   2.180   2.507   4.296 -0.8588  0.2909 -1.2030
    3ARG   HH12   59   2.223   2.660   4.370 -1.6367  0.9016 -1.1162
    3ARG    NH2   60   2.363   2.727   4.168 -0.0073  0.5095 -0.0381
    3ARG   HH21   61   2.380   2.747   4.071  0.2818  2.9144  0.4528
    3ARG   HH22   62   2.377   2.798   4.239  0.9016 -0.8049  1.1664
    3ARG      C   63   2.427   2.046   3.861  0.0735 -0.3112  0.4690
    3ARG      O   64   2.475   1.952   3.921 -0.0834  0.1257 -0.4401
    4TRP      N   65   2.510   2.142   3.805  0.1447 -0.0756 -0.1781
    4TRP      H   66   2.458   2.217   3.761 -1.0162 -1.7381 -1.8179
    4TRP     CA   67   2.654   2.153   3.827  0.6455  0.6612  0.0508
    4TRP     HA   68   2.669   2.135   3.934 -0.1292  2.7596  0.5605
    4TRP     CB   69   2.728   2.046   3.738  0.1999  0.2968 -0.1103
    4TRP    HB2   70   2.668   1.955   3.748  2.4123 -1.1699  0.5751
    4TRP    HB3   71   2.729   2.085   3.636 -0.4624  1.7570  0.4197
    4TRP     CG   72   2.863   1.990   3.755 -0.0105  0.2452  0.0713
    4TRP    CD1   73   2.944   1.947   3.649 -0.8179 -1.7242  0.7774
    4TRP    HD1   74   2.914   1.941   3.545 -0.6347 -1.4962  0.7122
    4TRP    NE1   75   3.077   1.942   3.686 -0.3694  0.1881 -0.6836
    4TRP    HE1   76   3.147   1.937   3.613  0.4659  1.8122 -0.0626
    4TRP    CE2   77   3.088   1.974   3.823 -0.6406 -0.6911  0.1454
    4TRP    CZ2   78   3.202   2.003   3.904 -0.4196  0.3009 -0.0808
    4TRP    HZ2   79   3.300   2.006   3.860  0.5663  2.3744  2.0438
    4TRP    CH2   80   3.179   2.039   4.037 -0.4599 -0.2189 -0.5694
    4TRP    HH2   81   3.264   2.062   4.099  0.4031 -2.3371 -0.8895
    4TRP    CZ3   82   3.046   2.041   4.091  0.1516  0.0341  0.2505
    4TRP    HZ3   83   3.037   2.079   4.191  0.2591 -1.1667  0.7303
    4TRP    CE3   84   2.933   2.007   4.009  0.1195  0.3498 -0.4145
    4TRP    HE3   85   2.834   2.000   4.052  0.4882  1.5017  0.7145
    4TRP    CD2   86   2.955   1.983   3.870  0.6364  0.1428 -0.3295
    4TRP      C   87   2.696   2.306   3.812  0.4059  0.3437 -0.0897
    4TRP      O   88   2.606   2.392   3.825 -0.0253 -0.0927 -0.5641
    5PRO      N   89   2.821   2.347   3.781  0.2307  0.3009 -0.3917
    5PRO     CD   90   2.943   2.270   3.766 -0.2305  0.1662  0.0431
    5PRO    HD2   91   2.933   2.208   3.677 -1.3828  1.8301 -1.0373
    5PRO    HD3   92   2.950   2.206   3.854 -0.3785 -1.5019 -1.0991
    5PRO     CG   93   3.058   2.365   3.746 -1.1215 -0.0374  0.3143
    5PRO    HG2   94   3.066   2.403   3.644  5.1454  0.1988  0.4650
    5PRO    HG3   95   3.153   2.318   3.772 -0.3474  1.2501 -0.0947
    5PRO     CB   96   3.012   2.471   3.850 -0.2421  0.2579  0.2466
    5PRO    HB2   97   3.061   2.568   3.848 -0.8765  0.5942  0.5869
    5PRO    HB3   98   3.016   2.431   3.951 -2.3422 -0.1960  0.2054
    5PRO     CA   99   2.863   2.484   3.806  0.0024  0.0222  0.0630
    5PRO     HA  100   2.803   2.529   3.885  0.6643  3.3886 -1.1975
    5PRO      C  101   2.843   2.565   3.683  0.2103  0.1671  0.2843
    5PRO      O  102   2.821   2.519   3.568  0.4697  0.5835  0.0097
    6TRP      N  103   2.867   2.693   3.701 -0.2119  0.0565  0.2963
    6TRP      H  104   2.856   2.733   3.793  0.1842 -1.1949  0.9173
    6TRP     CA  105   2.867   2.785   3.592  0.3448  0.5295 -0.2274
    6TRP     HA  106   2.914   2.735   3.508  0.2357  1.5801 -0.9396
    6TRP     CB  107   2.718   2.818   3.561  0.5368  0.0271 -0.8610
    6TRP    HB2  108   2.656   2.729   3.574  1.8358 -0.4855  3.5397
    6TRP    HB3  109   2.682   2.889   3.636  0.8329 -0.7625  0.0612
    6TRP     CG  110   2.681   2.876   3.429  0.3918  0.1792 -0.7260
    6TRP    CD1  111   2.559   2.935   3.410 -1.0832 -0.5325  0.4518
    6TRP    HD1  112   2.480   2.939   3.485 -0.8035  1.2220  0.6832
    6TRP    NE1  113   2.554   2.980   3.282 -0.1011 -0.2560  0.1297
    6TRP    HE1  114   2.476   3.032   3.245 -1.6062 -1.7455  1.0429
    6TRP    CE2  115   2.673   2.963   3.213  0.2392  0.0134 -0.6423
    6TRP    CZ2  116   2.720   3.000   3.081  0.5381 -0.1833 -0.6464
    6TRP    HZ2  117   2.655   3.051   3.012  0.5492  0.4604 -0.1885
    6TRP    CH2  118   2.850   2.959   3.046 -0.0753 -0.0917  0.5423
    6TRP    HH2  119   2.892   2.991   2.952  0.7643  0.5608  1.1249
    6TRP    CZ3  120   2.931   2.889   3.137 -0.5055  0.3262  0.1402
    6TRP    HZ3  121   3.031   2.864   3.104 -0.8456  2.6335 -3.0766
    6TRP    CE3  122   2.873   2.846   3.252 -0.1653  0.1687  0.0651
    6TRP    HE3  123   2.933   2.778   3.311 -0.7843 -1.1134 -0.7288
    6TRP    CD2  124   2.751   2.889   3.306 -0.0226  0.3689  0.5171
    6TRP      C  125   2.939   2.915   3.630  0.2854 -0.5003 -0.2242
    6TRP      O  126   2.936   2.957   3.745 -0.1686  0.4638  0.7152
    7TRP      N  127   2.996   2.978   3.530  0.4016  0.4279 -0.0499
    7TRP      H  128   2.968   2.946   3.438 -2.2984  0.3664  0.7224
    7TRP     CA  129   3.057   3.108   3.529 -0.1733 -0.4215 -0.5778
    7TRP     HA  130   3.009   3.156   3.615 -2.4354 -0.4386 -1.7447
    7TRP     CB  131   3.209   3.090   3.568 -0.4925 -0.2790  0.5585
    7TRP    HB2  132   3.217   3.012   3.643  0.3431  0.8972  1.7451
    7TRP    HB3  133   3.257   3.054   3.477 -0.9785  0.8618 -0.1813
    7TRP     CG  134   3.293   3.210   3.604  0.5095  0.2534 -0.7774
    7TRP    CD1  135   3.428   3.211   3.592  0.2254  0.5075  0.2930
    7TRP    HD1  136   3.494   3.132   3.561  0.7151  1.0881 -0.1781
    7TRP    NE1  137   3.469   3.343   3.594 -0.1982  0.4770 -0.2307
    7TRP    HE1  138   3.551   3.381   3.550 -0.4975 -0.8462 -2.0851
    7TRP    CE2  139   3.365   3.428   3.614  0.3184  0.0130  0.4429
    7TRP    CZ2  140   3.353   3.570   3.593 -0.4336  1.0209 -1.0152
    7TRP    HZ2  141   3.438   3.633   3.572 -0.4421  0.7080 -2.0096
    7TRP    CH2  142   3.236   3.635   3.616 -0.4464 -0.7098  0.8720
    7TRP    HH2  143   3.227   3.741   3.594 -1.2541 -0.2608  3.1171
    7TRP    CZ3  144   3.126   3.556   3.639 -0.3766  0.9937  0.0927
    7TRP    HZ3  145   3.030   3.604   3.650 -0.4921  1.0200 -0.9192
    7TRP    CE3  146   3.131   3.413   3.648 -0.1119  0.0577  0.9786
    7TRP    HE3  147   3.041   3.360   3.674 -1.2010  0.4430 -1.7661
    7TRP    CD2  148   3.252   3.344   3.635  0.8565 -0.5397 -0.9312
    7TRP      C  149   3.008   3.193   3.405 -0.0548  0.3988  0.2441
    7TRP      O  150   2.885   3.202   3.392 -0.2597  0.0155  0.6093
    8PRO      N  151   3.081   3.254   3.313 -0.4743 -0.3691 -0.1182
    8PRO     CD  152   3.221   3.291   3.307  0.6993  0.0600 -0.1537
    8PRO    HD2  153   3.278   3.242   3.228  0.7867 -0.8714  0.4658
    8PRO    HD3  154   3.280   3.286   3.399  1.9354 -1.7398 -0.9768
    8PRO     CG  155   3.226   3.434   3.269 -0.0658 -0.0695  0.5579
    8PRO    HG2  156   3.306   3.459   3.200 -1.9182  0.4181 -1.5332
    8PRO    HG3  157   3.242   3.499   3.356 -0.1396 -0.0601  0.5650
    8PRO     CB  158   3.089   3.463   3.201  0.2900  0.5390 -0.1646
    8PRO    HB2  159   3.092   3.507   3.101  0.9128  1.1023  0.0969
    8PRO    HB3  160   3.034   3.521   3.274 -1.1697 -1.1927  0.1908
    8PRO     CA  161   3.027   3.320   3.195 -0.0439  0.2076 -0.2936
    8PRO     HA  162   2.919   3.321   3.204 -0.0952 -1.3179 -0.5470
    8PRO      C  163   3.063   3.246   3.068 -0.2999  0.0091 -0.1805
    8PRO      O  164   3.127   3.142   3.063 -0.6101 -0.5743 -0.1994
    9TRP      N  165   3.017   3.306   2.953  0.3579  0.2299  0.1097
    9TRP      H  166   2.952   3.384   2.959 -1.8240 -1.2786 -1.9229
    9TRP     CA  167   3.068   3.283   2.818 -0.4889 -0.1267  0.8047
    9TRP     HA  168   3.177   3.285   2.822 -0.5121 -0.7331  2.0506
    9TRP     CB  169   3.018   3.145   2.767 -0.1697  0.0644 -0.4700
    9TRP    HB2  170   3.038   3.077   2.849 -1.9991 -0.4233 -0.3808
    9TRP    HB3  171   2.910   3.154   2.763 -0.2679 -0.6035  0.3499
    9TRP     CG  172   3.066   3.090   2.637 -0.0855  0.0605  0.4239
    9TRP    CD1  173   2.988   3.021   2.556  0.1057  0.3129  0.0553
    9TRP    HD1  174   2.889   2.993   2.589  1.2314 -1.4325  2.1559
    9TRP    NE1  175   3.070   2.973   2.449  0.1420 -0.7479  0.1229
    9TRP    HE1  176   3.036   2.923   2.368 -0.5164 -2.0383  1.1517
    9TRP    CE2  177   3.190   3.038   2.451  0.4132 -0.2889  0.3022
    9TRP    CZ2  178   3.283   3.053   2.350 -0.1325 -0.4735  0.3608
    9TRP    HZ2  179   3.267   3.014   2.251 -2.9261 -0.8947  0.9155
    9TRP    CH2  180   3.394   3.135   2.374 -0.2173 -0.5860  0.4712
    9TRP    HH2  181   3.469   3.158   2.300  0.4907  1.0670  1.6366
    9TRP    CZ3  182   3.416   3.196   2.500  0.7257  0.4346  0.2048
    9TRP    HZ3  183   3.500   3.262   2.518  0.3537  0.4445  2.1664
    9TRP    CE3  184   3.318   3.181   2.597  0.1532 -0.6960  0.0390
    9TRP    HE3  185   3.327   3.245   2.684 -1.3795 -0.8464  0.3291
    9TRP    CD2  186   3.197   3.111   2.570 -0.1434 -0.3031  0.0247
    9TRP      C  187   3.019   3.403   2.727  0.8910 -0.0197  0.4632
    9TRP      O  188   2.948   3.494   2.772 -0.2521 -0.2464  0.6575
   10ARG      N  189   3.074   3.409   2.603 -0.5275 -1.0297  0.0165
   10ARG      H  190   3.114   3.325   2.563  0.0705 -0.2305 -1.1491
   10ARG     CA  191   3.052   3.504   2.487 -0.1062  0.2994 -0.1682
   10ARG     HA  192   2.949   3.536   2.477 -0.2483 -0.0714  0.1129
   10ARG     CB  193   3.151   3.624   2.499  0.0352  0.0246 -0.1441
   10ARG    HB2  194   3.116   3.670   2.592 -0.2558 -1.7904  0.6998
   10ARG    HB3  195   3.252   3.583   2.501  0.7702  1.4516 -3.2153
   10ARG     CG  196   3.148   3.716   2.378 -0.3298  0.2126 -0.1192
   10ARG    HG2  197   3.196   3.673   2.290 -0.4260 -1.3770  0.5752
   10ARG    HG3  198   3.040   3.720   2.363 -0.5480 -1.9724  0.4437
   10ARG     CD  199   3.222   3.846   2.408 -0.5281  0.7847  0.4759
   10ARG    HD2  200   3.187   3.892   2.500  0.1076  3.2120 -0.4065
   10ARG    HD3  201   3.325   3.834   2.441 -0.3977  1.6010  0.3961
   10ARG     NE  202   3.211   3.939   2.296  0.3119 -0.6809 -0.3991
   10ARG     HE  203   3.153   3.918   2.215 -4.3835  3.0611  1.4818
   10ARG     CZ  204   3.274   4.055   2.287 -0.1377  0.3557  0.1859
   10ARG    NH1  205   3.348   4.102   2.383 -0.8191  0.2554  0.4518
   10ARG   HH11  206   3.378   4.036   2.453  0.7999 -2.7388 -2.7420
   10ARG   HH12  207   3.390   4.192   2.368 -0.6687  0.3151  1.2256
   10ARG    NH2  208   3.257   4.115   2.176 -0.0459  0.7400 -0.0132
   10ARG   HH21  209   3.200   4.080   2.101  0.5187  2.7372 -1.4465
   10ARG   HH22  210   3.302   4.205   2.168 -0.6724  0.9179 -1.7787
   10ARG      C  211   3.083   3.428   2.352 -0.0343  0.6215 -0.0504
   10ARG      O  212   3.172   3.343   2.355 -0.2248 -0.2375 -0.0143
   11ARG      N  213   3.032   3.461   2.240 -0.3474 -0.1409  0.5566
   11ARG      H  214   2.962   3.534   2.240 -0.1750  0.0313 -0.0524
   11ARG     CA  215   3.086   3.412   2.107 -0.5203  0.4827  0.2769
   11ARG     HA  216   3.189   3.379   2.121 -0.3475  0.0683 -1.6841
   11ARG     CB  217   3.011   3.285   2.075 -0.1741 -0.0173  0.5498
   11ARG    HB2  218   3.015   3.214   2.157 -0.2457  0.3663  0.8874
   11ARG    HB3  219   2.912   3.312   2.037 -0.1422 -1.8486 -1.0202
   11ARG     CG  220   3.062   3.218   1.948 -0.1496  0.4968  0.3143
   11ARG    HG2  221   3.044   3.274   1.856  0.0022 -1.2598 -0.8296
   11ARG    HG3  222   3.170   3.209   1.945 -0.0362  1.4578 -3.5549
   11ARG     CD  223   2.992   3.088   1.922  0.3657 -0.0618  0.1208
   11ARG    HD2  224   3.028   3.016   1.995 -0.5422  1.0358  1.7140
   11ARG    HD3  225   2.886   3.109   1.939 -0.0700  0.0751 -2.4416
   11ARG     NE  226   3.010   3.037   1.784 -0.3985  0.2388  0.5637
   11ARG     HE  227   3.076   3.085   1.725 -0.2250  1.3804  1.6494
   11ARG     CZ  228   2.971   2.921   1.735  0.1046  0.4062 -0.0855
   11ARG    NH1  229   2.890   2.837   1.792 -0.0198 -0.4365 -0.0109
   11ARG   HH11  230   2.868   2.858   1.889  2.8544  0.8603  0.4713
   11ARG   HH12  231   2.839   2.763   1.746  1.3026 -2.4066  1.5347
   11ARG    NH2  232   3.015   2.883   1.619 -0.1203 -0.0542  0.3944
   11ARG   HH21  233   3.086   2.937   1.572 -1.0286  1.4021  0.6270
   11ARG   HH22  234   2.980   2.793   1.592  1.2241 -0.9844  1.5917
   11ARG      C  235   3.088   3.519   2.001  0.7399 -0.9096  0.7733
   11ARG      O  236   3.008   3.613   2.007  0.6352  0.0097  0.2176
   12LYS      N  237   3.169   3.504   1.897  0.0659  0.3747 -0.1510
   12LYS      H  238   3.247   3.440   1.905  0.3524  0.5645 -1.1883
   12LYS     CA  239   3.155   3.581   1.768 -0.3898  0.2286 -0.2139
   12LYS     HA  240   3.048   3.602   1.766 -0.3437  1.1994  2.6553
   12LYS     CB  241   3.238   3.710   1.784 -0.5804  0.2414  0.4992
   12LYS    HB2  242   3.207   3.759   1.876  0.0789  1.1245  0.2668
   12LYS    HB3  243   3.344   3.687   1.786 -0.8164 -0.8216  2.2668
   12LYS     CG  244   3.205   3.814   1.675  0.0259  0.1093  0.0035
   12LYS    HG2  245   3.234   3.764   1.582  1.1037  0.6103  0.0512
   12LYS    HG3  246   3.097   3.817   1.684 -0.0489 -1.0680 -0.2982
   12LYS     CD  247   3.275   3.948   1.676  0.3351 -0.4314 -0.6121
   12LYS    HD2  248   3.260   3.995   1.772  1.5201 -2.9646  0.9200
   12LYS    HD3  249   3.380   3.919   1.666  0.0769 -0.9286 -2.2699
   12LYS     CE  250   3.232   4.046   1.563  0.6888 -0.6506 -0.5346
   12LYS    HE2  251   3.251   4.000   1.466  1.7405  0.2820 -0.7843
   12LYS    HE3  252   3.124   4.059   1.552  0.8486 -1.0611 -3.2534
   12LYS     NZ  253   3.306   4.174   1.564 -0.4361  0.5643  0.3347
   12LYS    HZ1  254   3.401   4.155   1.537 -0.5122  0.1279  0.3682
   12LYS    HZ2  255   3.276   4.242   1.496 -0.8545 -0.1982 -0.2614
   12LYS    HZ3  256   3.305   4.219   1.654 -1.1118  0.6868  0.2717
   12LYS      C  257   3.198   3.495   1.642  0.1183  0.4805 -0.8355
   12LYS      O  258   3.284   3.403   1.651 -0.3148 -0.2318  0.3295
   13NHE      N  259   3.130   3.507   1.532  0.0824  0.1508 -0.1523
   13NHE    HN1  260   3.059   3.579   1.522  1.8443  1.6567 -3.2009
   13NHE    HN2  261   3.158   3.449   1.454  0.8063  0.1723  0.0884
   14Cl-    Cl-  262   3.578   4.300   2.489  0.5213 -0.0254  0.1153
   15Cl-    Cl-  263   3.281   4.012   1.191  0.0307  0.1585 -0.1271
   16Cl-    Cl-  264   1.791   2.012   3.328  0.1529  0.2254  0.1663
   17Cl-    Cl-  265   2.851   4.095   4.783 -0.4069 -0.4812 -0.1548
   18Cl-    Cl-  266   3.547   1.589   2.508  0.2006 -0.1925  0.1197
   19WAT      O  267   4.363   2.387   4.370  0.2969 -0.7687  0.0201
   19WAT     H1  268   4.356   2.398   4.465 -1.3403  0.5699 -0.2020
   19WAT     H2  269   4.343   2.474   4.334  1.1743 -1.1784 -1.5517
   20WAT      O  270   4.596   3.849   3.067  0.0726  0.6653  0.2293
   20WAT     H1  271   4.509   3.833   3.104 -0.3911 -1.2194 -1.4792
   20WAT     H2  272   4.624   3.932   3.105 -3.0652  2.0697 -0.2275
   21WAT      O  273   2.433   5.144   2.682  0.0463  0.4068 -0.5439
   21WAT     H1  274   2.432   5.069   2.741  0.5829  1.7364  1.2874
   21WAT     H2  275   2.498   5.203   2.721 -1.1903  2.3121 -1.2047
   22WAT      O  276   3.772   0.695   3.137  0.4865  0.1975  0.6546
   22WAT     H1  277   3.795   0.733   3.053  0.6437 -0.7576  0.2451
   22WAT     H2  278   3.837   0.729   3.198 -0.5198  2.0935  0.7265
   23WAT      O  279   3.435   3.431   5.453  0.1248 -0.3224 -0.6304
   23WAT     H1  280   3.391   3.449   5.536  1.0197 -1.1594  0.0523
   23WAT     H2  281   3.373   3.458   5.386 -0.1455  1.4917  0.3040
   24WAT      O  282   3.417   3.355   0.058 -0.1813  0.3175 -0.2687
   24WAT     H1  283   3.390   3.264   0.044 -2.0171  0.6734  0.6848
   24WAT     H2  284   3.484   3.370  -0.009  0.0855 -1.6909 -0.5212
   25WAT      O  285   2.279   3.148   4.966  0.0126 -0.6624 -0.5782
   25WAT     H1  286   2.352   3.141   5.027 -1.1069 -0.1815  0.8723
   25WAT     H2  287   2.201   3.133   5.019 -0.9120 -3.7490 -2.5085
   26WAT      O  288   2.896   3.240   5.657  0.1241 -0.2365 -0.2225
   26WAT     H1  289   2.959   3.243   5.585 -0.1164  0.7886 -0.4006
   26WAT     H2  290   2.849   3.158   5.644  1.4571 -1.0685 -0.0449
   27WAT      O  291   2.421   4.254   3.066 -0.3038 -0.0683  0.1243
   27WAT     H1  292   2.469   4.177   3.037 -0.8773 -0.9351  1.4054
   27WAT     H2  293   2.463   4.279   3.148 -0.9412  0.2121  0.3689
   28WAT      O  294   3.173   2.349   5.307  0.0274  0.3307 -0.2526
   28WAT     H1  295   3.189   2.430   5.355 -0.9893 -0.1657  0.9632
   28WAT     H2  296   3.252   2.296   5.323  0.4096  0.8119 -0.5157
   29WAT      O  297   2.919   5.306   1.102  0.0791  0.3723 -0.3414
   29WAT     H1  298   2.992   5.347   1.148 -0.1706  0.7255 -0.2625
   29WAT     H2  299   2.917   5.216   1.136  0.8725  0.1689 -0.8073
   30WAT      O  300   2.870   2.906   5.088  0.1986  0.1824 -0.1595
   30WAT     H1  301   2.786   2.951   5.090 -0.6182 -1.2229 -1.0812
   30WAT     H2  302   2.855   2.825   5.138  1.1222  0.1145  0.0269
   31WAT      O  303   3.191   5.652   4.295  0.2510  0.1528  0.1615
   31WAT     H1  304   3.103   5.645   4.260  0.5536 -1.9584 -0.2733
   31WAT     H2  305   3.189   5.601   4.377  0.8356  0.8630  0.6391
   32WAT      O  306   3.717   3.085   4.560 -0.4124 -0.0531 -0.0515
   32WAT     H1  307   3.671   3.004   4.537 -1.1616  0.4917 -0.4987
   32WAT     H2  308   3.802   3.076   4.517 -1.2587  0.2927 -1.8871
   33WAT      O  309   3.461   0.107   2.842 -0.0614 -0.2573  0.1882
   33WAT     H1  310   3.524   0.109   2.770 -0.7955 -0.0164 -0.4564
   33WAT     H2  311   3.491   0.174   2.903  0.1903 -0.0075 -0.2103
   34WAT      O  312   1.609   4.880   5.103 -0.1177  0.4217  0.1375
   34WAT     H1  313   1.531   4.837   5.136  0.5774 -2.5596 -1.7399
   34WAT     H2  314   1.680   4.848   5.158 -0.0077  2.2417  1.1217
   35WAT      O  315   3.731   5.429   0.283  0.0024  0.1929 -0.0494
   35WAT     H1  316   3.744   5.497   0.350 -1.3452 -0.4707  0.9557
   35WAT     H2  317   3.656   5.460   0.232  1.5346  1.1035 -1.8703
   36WAT      O  318   2.840   3.966   5.455  0.1652  0.0252 -0.1421
   36WAT     H1  319   2.890   4.033   5.501  1.5037 -0.6393 -0.5651
   36WAT     H2  320   2.905   3.899   5.434 -0.8830 -0.7772 -0.9052
   37WAT      O  321   3.455   0.039   3.446  0.3175 -0.6387  0.5229
   37WAT     H1  322   3.434  -0.024   3.377 -0.6190 -1.2273  1.3158
   37WAT     H2  323   3.534   0.084   3.415 -0.8782  0.1228 -1.5758
   38WAT      O  324   3.621   1.863   4.734 -0.0799  0.4440 -0.1260
   38WAT     H1  325   3.617   1.865   4.638 -0.1547 -0.6204 -0.1618
   38WAT     H2  326   3.539   1.904   4.762 -0.1246  0.6317 -0.5236
   39WAT      O  327   3.972   3.889   4.521 -0.4449  1.2294  0.0165
   39WAT     H1  328   3.892   3.841   4.542  0.1936  0.2002  0.2056
   39WAT     H2  329   3.948   3.946   4.448 -1.0598  0.0752 -0.7095
   40WAT      O  330   2.804   5.087   0.571  0.3719  0.5101  0.4665
   40WAT     H1  331   2.774   5.072   0.661  2.2358  0.1493  1.0645
   40WAT     H2  332   2.725   5.115   0.525 -1.0791 -1.1788  1.7379
   41WAT      O  333   3.173   2.202   0.130 -0.4087  0.4161 -0.3881
   41WAT     H1  334   3.238   2.175   0.065 -1.2673 -0.2783 -0.9783
   41WAT     H2  335   3.218   2.270   0.181  0.6469  0.2230 -1.0158
   42WAT      O  336   2.536   4.707   5.306  0.9132 -0.2442 -0.0043
   42WAT     H1  337   2.450   4.672   5.283  1.3552 -1.2122 -0.2665
   42WAT     H2  338   2.538   4.706   5.402  0.8353 -0.7800 -0.0008
   43WAT      O  339   3.544   4.335   5.014  0.2458 -0.2179  0.2561
   43WAT     H1  340   3.559   4.289   4.932 -1.1100 -0.0765 -0.1000
   43WAT     H2  341   3.625   4.383   5.030  0.7268 -0.6818 -0.7072
   44WAT      O  342   3.572   2.409   3.631  0.2466  0.6055  0.1362
   44WAT     H1  343   3.658   2.450   3.628  1.2191 -1.3427 -2.4804
   44WAT     H2  344   3.590   2.315   3.627 -1.9651  0.1514 -0.9562
   45WAT      O  345   1.029   3.210   4.185  0.1224 -0.1763  0.0951
   45WAT     H1  346   1.089   3.276   4.150 -0.1979  0.8443  1.3802
   45WAT     H2  347   0.942   3.248   4.171 -0.1811 -1.1778 -0.8184
   46WAT      O  348   3.700   3.128   3.409 -0.2178  0.5182  0.0869
   46WAT     H1  349   3.632   3.071   3.371 -0.1415  0.3794  0.1571
   46WAT     H2  350   3.661   3.215   3.408  0.4075  0.8259 -1.8558
   47WAT      O  351   3.808   3.847   0.533 -0.5897  0.5781 -0.4606
   47WAT     H1  352   3.886   3.804   0.499  0.4816  1.0636  1.2550
   47WAT     H2  353   3.738   3.783   0.522 -0.3969  0.7558 -3.6290
   48WAT      O  354   3.258   3.539   5.272  0.2956 -0.0677 -0.0752
   48WAT     H1  355   3.253   3.491   5.190  1.9245 -0.3916 -0.0138
   48WAT     H2  356   3.313   3.615   5.252  2.8334 -1.4222  1.2283
   49WAT      O  357   0.930   3.993   4.014 -0.3960 -0.2258  0.8442
   49WAT     H1  358   1.015   4.037   4.021 -0.8279  0.6904  0.4116
   49WAT     H2  359   0.897   4.019   3.928 -0.6526 -1.4299  0.5692
   50WAT      O  360   4.247   1.412   4.165 -0.2054 -0.2446  0.3341
   50WAT     H1  361   4.203   1.378   4.087 -2.1568 -0.9884  1.6814
   50WAT     H2  362   4.334   1.370   4.164  0.0021  0.1704 -1.6730
   51WAT      O  363   2.418   5.091   4.081  0.2034 -0.7284 -0.2747
   51WAT     H1  364   2.422   5.185   4.063  0.0999 -0.4742  0.9363
   51WAT     H2  365   2.440   5.050   3.997  1.1838  0.3704 -0.5924
   52WAT      O  366   3.041   4.020   0.074  0.0219 -0.2447  0.0097
   52WAT     H1  367   2.990   3.955   0.026  0.1939 -0.0556 -0.4304
   52WAT     H2  368   3.014   4.104   0.037  1.2158 -0.1921 -0.7587
   53WAT      O  369   2.565   3.983   1.785  0.1280 -0.1905 -0.1409
   53WAT     H1  370   2.566   3.925   1.861  2.1084  0.2761  0.2333
   53WAT     H2  371   2.540   3.927   1.712  0.4843 -1.1646  0.4675
   54WAT      O  372   0.365   3.046   5.684  0.3956 -0.0261 -0.2852
   54WAT     H1  373   0.453   3.033   5.648 -0.3153 -1.6195 -1.5757
   54WAT     H2  374   0.364   2.993   5.764  0.6210  0.0597 -0.2232
   55WAT      O  375   3.254   3.802   4.930 -0.5344  0.3012 -0.2071
   55WAT     H1  376   3.200   3.854   4.871 -0.1970  1.2875  0.3308
   55WAT     H2  377   3.336   3.789   4.882 -0.6514  0.1802 -0.3771
   56WAT      O  378   4.060   4.021   0.364 -0.0902  0.7578 -0.0984
   56WAT     H1  379   4.077   3.981   0.449 -1.8414 -0.1406 -0.1069
   56WAT     H2  380   3.971   4.054   0.370  0.5697  2.8352 -0.8328
   57WAT      O  381   1.830   0.858   5.772  0.1406  0.0349 -0.5410
   57WAT     H1  382   1.828   0.832   5.864  0.0494 -1.7971 -1.0141
   57WAT     H2  383   1.742   0.838   5.740 -0.5832  2.8221 -0.5299
   58WAT      O  384   2.946   3.656   3.921 -0.4603  0.2684 -0.0576
   58WAT     H1  385   2.954   3.561   3.910 -1.9924 -0.3046  2.7714
   58WAT     H2  386   2.864   3.678   3.876 -1.0920 -0.1327  0.8581
   59WAT      O  387   2.506   4.695   0.840  0.1646 -0.2300  0.4743
   59WAT     H1  388   2.415   4.689   0.811  0.6406 -1.2482 -0.8956
   59WAT     H2  389   2.551   4.744   0.771  1.0264 -1.4024  0.1741
   60WAT      O  390   4.963   3.974   3.726  0.3717 -0.2051 -0.1735
   60WAT     H1  391   4.958   3.879   3.718 -0.3167 -0.2727  0.8756
   60WAT     H2  392   5.039   3.989   3.781 -0.1230 -0.2168  0.5301
   61WAT      O  393   3.166   5.424   5.277 -0.7156 -0.2103 -0.1948
   61WAT     H1  394   3.237   5.466   5.324 -1.1572  0.2581  0.0651
   61WAT     H2  395   3.147   5.482   5.203 -0.7626 -0.3822 -0.3200
   62WAT      O  396   2.580   4.767   0.260 -0.0294  0.4441  0.3580
   62WAT     H1  397   2.542   4.680   0.271 -0.0446  0.3678 -0.2476
   62WAT     H2  398   2.578   4.806   0.347  0.0838 -0.2060  0.6558
   63WAT      O  399   0.475   3.210   2.649  0.4044 -0.6272  0.5421
   63WAT     H1  400   0.551   3.173   2.604  0.7269  0.5610  0.0655
   63WAT     H2  401   0.402   3.151   2.626  0.6946 -0.4340 -1.0067
   64WAT      O  402   1.187   3.030   3.809  0.7317 -0.2852 -0.6589
   64WAT     H1  403   1.270   2.999   3.773  1.0018  0.6927 -0.9003
   64WAT     H2  404   1.178   3.119   3.775  1.0384  0.7324  1.7606
   65WAT      O  405   2.893   4.204   2.637 -0.2793 -0.2573  0.3723
   65WAT     H1  406   2.906   4.113   2.609 -0.4051  0.6697 -3.2519
   65WAT     H2  407   2.981   4.243   2.633 -0.6236  0.4470 -1.1608
   66WAT      O  408   0.611   3.480   3.735  0.4432 -0.4847  0.1529
   66WAT     H1  409   0.687   3.532   3.708 -0.1302  0.0230 -0.5154
   66WAT     H2  410   0.578   3.441   3.655 -0.2637 -0.3429  0.3651
   67WAT      O  411   4.363   1.145   4.376  0.5706  0.3386 -0.2226
   67WAT     H1  412   4.299   1.076   4.360  2.1157 -1.2892  0.3215
   67WAT     H2  413   4.388   1.176   4.289 -0.6278  0.7293 -0.4489
   68WAT      O  414   2.882   2.555   5.136  0.2572 -0.5046  0.8373
   68WAT     H1  415   2.840   2.475   5.168  0.5904 -0.8474  0.4197
   68WAT     H2  416   2.957   2.524   5.084 -0.1166  0.0534 -0.0494
   69WAT      O  417   4.566   3.768   1.127 -0.5371 -0.1761  0.1124
   69WAT     H1  418   4.612   3.697   1.173 -1.5143 -1.5375 -0.9166
   69WAT     H2  419   4.581   3.845   1.182  1.3608 -0.9534  0.7864
   70WAT      O  420   2.476   2.652   5.485 -0.3991 -0.5819 -1.0060
   70WAT     H1  421   2.571   2.663   5.474 -0.1095 -3.3454 -2.1951
   70WAT     H2  422   2.442   2.655   5.396 -1.7799  2.1147 -0.4966
   71WAT      O  423   3.691   2.866   4.811  0.1103 -0.4352  0.2006
   71WAT     H1  424   3.752   2.829   4.875  0.2223 -1.1937 -0.3257
   71WAT     H2  425   3.744   2.880   4.733 -0.2435 -0.4848 -0.0490
   72WAT      O  426   3.121   3.973   4.755 -0.0353  0.4327  0.3032
   72WAT     H1  427   3.044   4.026   4.776  1.1504  2.4037 -0.0501
   72WAT     H2  428   3.180   4.034   4.710  1.0873 -1.4278 -0.8549
   73WAT      O  429   4.175   2.480   5.058  0.1057 -0.5363 -0.1543
   73WAT     H1  430   4.094   2.495   5.107  1.3175  0.9168  1.5185
   73WAT     H2  431   4.210   2.399   5.094  0.3542 -0.1383  0.5185
   74WAT      O  432   1.134   2.049   3.295  0.2407  0.4500  0.2253
   74WAT     H1  433   1.213   2.054   3.349  1.4668 -2.2300 -1.1549
   74WAT     H2  434   1.067   2.012   3.352  0.6579  0.4526  0.7186
   75WAT      O  435   0.263   3.395   2.137 -0.1062  0.2374 -0.2136
   75WAT     H1  436   0.199   3.349   2.082 -0.9356  1.1305 -0.0202
   75WAT     H2  437   0.345   3.348   2.122 -0.2446  0.5765 -2.4223
   76WAT      O  438   3.147   4.549   3.074  0.0204  0.0752  0.4135
   76WAT     H1  439   3.104   4.502   3.003  0.4680 -0.2820  0.3712
   76WAT     H2  440   3.103   4.517   3.153 -0.7542  0.7743  0.2788
   77WAT      O  441   4.751   3.698   5.392 -0.6390  0.2158 -0.1053
   77WAT     H1  442   4.701   3.633   5.441 -0.7308 -0.8339 -1.5217
   77WAT     H2  443   4.837   3.657   5.379  0.1689  1.4274  1.1137
   78WAT      O  444   1.605   3.466   5.077  0.2866  0.2060 -0.2179
   78WAT     H1  445   1.551   3.534   5.116  0.0259 -0.0208 -0.1814
   78WAT     H2  446   1.669   3.514   5.024 -1.3775  0.4633 -2.1611
   79WAT      O  447   2.821   4.090   1.289 -0.3615 -0.2669  0.0891
   79WAT     H1  448   2.735   4.103   1.329  0.1485  0.0919  1.0806
   79WAT     H2  449   2.878   4.154   1.332  0.6916 -1.3427  0.3445
   80WAT      O  450   1.663   2.299   0.552  0.0231  0.4170  0.1776
   80WAT     H1  451   1.578   2.321   0.515 -0.8563  0.8415  2.2879
   80WAT     H2  452   1.726   2.329   0.487 -1.4137  0.4269 -1.2810
   81WAT      O  453   1.822   4.709   0.921 -0.6176  0.3977  0.3874
   81WAT     H1  454   1.764   4.710   0.997  0.5433 -1.0014  1.3434
   81WAT     H2  455   1.796   4.632   0.871  1.8282 -1.6914  2.0731
   82WAT      O  456   4.856   1.725   1.895 -0.0920  0.4175 -0.3813
   82WAT     H1  457   4.818   1.649   1.850  1.1839 -1.1574  1.0402
   82WAT     H2  458   4.885   1.783   1.825 -1.5950 -0.1297 -1.5101
   83WAT      O  459   4.151   3.176   4.490  0.3010 -0.4652  0.3700
   83WAT     H1  460   4.068   3.134   4.468  1.0914 -2.0005  0.2061
   83WAT     H2  461   4.173   3.143   4.577 -0.1335  1.3643  1.2168
   84WAT      O  462   4.224   4.549   3.596  0.2334  0.3411 -0.5633
   84WAT     H1  463   4.153   4.499   3.556  0.7801 -0.3380 -0.6974
   84WAT     H2  464   4.233   4.512   3.684  0.3717  0.4715 -0.5223
   85WAT      O  465   3.182   4.954   3.893 -0.4927  0.0124  0.1631
   85WAT     H1  466   3.151   4.956   3.802 -2.0280  3.5420  0.5993
   85WAT     H2  467   3.104   4.930   3.944 -0.1553  0.0066  0.6807
   86WAT      O  468   3.419   3.694   3.170 -0.0843  0.6618  0.2767
   86WAT     H1  469   3.343   3.741   3.205 -0.7828  0.4369 -0.8961
   86WAT     H2  470   3.488   3.709   3.235 -0.8471  1.6823  0.8874
   87WAT      O  471   0.468   3.918   2.752  0.0384 -0.1714 -0.7581
   87WAT     H1  472   0.390   3.883   2.795  0.2676  0.3521  0.1134
   87WAT     H2  473   0.524   3.842   2.738  0.4872 -0.2177  1.0144
   88WAT      O  474   4.822   3.340   4.355  0.3790 -0.3524 -0.2278
   88WAT     H1  475   4.781   3.424   4.339  2.2679  0.9792  1.4156
   88WAT     H2  476   4.769   3.300   4.424 -0.6429 -0.6333 -1.1577
   89WAT      O  477   3.003   3.846   0.457  0.4900  0.7827  0.5678
   89WAT     H1  478   2.957   3.795   0.391 -1.1528  1.9720  0.7313
   89WAT     H2  479   3.023   3.929   0.414  1.9743  0.5368  0.7092
   90WAT      O  480   3.139   2.443   5.057  0.0103  0.4003 -0.0440
   90WAT     H1  481   3.163   2.388   5.131  2.3833  1.5155  0.1053
   90WAT     H2  482   3.142   2.385   4.981  1.5789  0.0677  0.2311
   91WAT      O  483   2.898   0.560   4.740 -0.2900 -0.2495 -0.1479
   91WAT     H1  484   2.846   0.636   4.765 -0.7455 -0.2507 -1.0569
   91WAT     H2  485   2.903   0.508   4.820 -0.1038  0.6531  0.4468
   92WAT      O  486   0.206   3.832   2.803  0.5421  0.0812  0.1928
   92WAT     H1  487   0.211   3.738   2.820 -0.9183 -0.0374  0.0991
   92WAT     H2  488   0.179   3.839   2.712 -0.2549  0.5720  0.4590
   93WAT      O  489   3.761   5.435   4.040 -0.5159  0.1922 -0.1512
   93WAT     H1  490   3.708   5.508   4.008 -0.3537  0.4134  0.0829
   93WAT     H2  491   3.739   5.363   3.981 -0.6290  0.4456 -0.4255
   94WAT      O  492   0.756   1.613   2.220  0.3947  0.0629  0.2018
   94WAT     H1  493   0.719   1.694   2.186 -0.5124  0.2323  1.4914
   94WAT     H2  494   0.718   1.605   2.308  2.0854 -0.6826  0.9080
   95WAT      O  495   3.410   3.359   4.801  0.0366 -0.7736 -0.1424
   95WAT     H1  496   3.377   3.392   4.718 -0.8018 -1.4248 -0.0805
   95WAT     H2  497   3.505   3.361   4.791  0.0440  1.3887 -0.2331
   96WAT      O  498   4.863   3.505   2.331 -0.4902 -0.5164  0.2340
   96WAT     H1  499   4.898   3.468   2.413 -0.7620 -1.2408  0.0262
   96WAT     H2  500   4.878   3.599   2.340  0.0375 -0.6496  0.8565
   97WAT      O  501   4.625   3.853   5.046  0.1034  0.1856  0.1583
   97WAT     H1  502   4.619   3.759   5.059  1.5246 -0.1192 -1.1580
   97WAT     H2  503   4.631   3.889   5.135  1.2203 -1.1102  0.6450
   98WAT      O  504   2.959   3.154   4.779 -0.3142  0.1484 -0.1703
   98WAT     H1  505   2.960   3.219   4.709 -1.3051 -0.1765 -0.5057
   98WAT     H2  506   2.948   3.206   4.859 -0.7144  0.4305 -0.4006
   99WAT      O  507   3.977   4.352   0.232  0.0597 -0.1269  0.0188
   99WAT     H1  508   3.913   4.287   0.261  0.8075 -1.2566 -0.7815
   99WAT     H2  509   3.958   4.363   0.139 -0.7264  1.6119  0.3384
  100WAT      O  510   2.184   5.532   5.804 -0.0776  0.1171 -0.0487
  100WAT     H1  511   2.164   5.624   5.784 -1.2802 -0.6601 -2.9681
  100WAT     H2  512   2.231   5.501   5.727 -2.1291 -2.3749 -0.4339
  101WAT      O  513   4.393   2.991   4.400 -0.0112  0.0066 -0.0616
  101WAT     H1  514   4.368   2.899   4.415 -0.8390  0.1576 -0.4769
  101WAT     H2  515   4.365   3.036   4.480 -1.9008  0.3222 -0.8499
  102WAT      O  516   1.045   3.974   3.569 -0.0064 -0.1429 -0.3706
  102WAT     H1  517   1.127   3.962   3.522  0.4409  0.9846  0.0849
  102WAT     H2  518   0.996   3.893   3.553  1.5096 -1.1711  0.0114
  103WAT      O  519   2.027   0.496   1.241  0.4274 -0.6067 -0.2826
  103WAT     H1  520   2.069   0.543   1.169  1.4893  1.3162  1.4804
  103WAT     H2  521   1.947   0.546   1.259  0.0447 -1.2128 -0.2626
  104WAT      O  522   3.482   5.475   4.539  0.2486 -0.1179 -0.0179
  104WAT     H1  523   3.540   5.456   4.465 -1.9397 -2.7057 -1.2738
  104WAT     H2  524   3.490   5.398   4.596 -3.3652 -1.7122 -1.3487
  105WAT      O  525   2.722   4.499   0.477 -0.2144  0.0237  0.6997
  105WAT     H1  526   2.791   4.553   0.516  1.5374 -0.7422 -1.1889
  105WAT     H2  527   2.699   4.436   0.545  2.1182 -0.7221  0.8864
  106WAT      O  528   0.558   2.553   4.496 -0.0309 -0.8656  0.2646
  106WAT     H1  529   0.647   2.532   4.523 -0.2377 -2.6508 -0.2796
  106WAT     H2  530   0.527   2.616   4.561  1.0851 -1.4284  1.3842
  107WAT      O  531   2.764   2.245   4.127 -0.3429 -0.1093  0.3242
  107WAT     H1  532   2.690   2.305   4.128 -0.4779 -0.2759  0.2993
  107WAT     H2  533   2.739   2.175   4.188  0.1107  0.2199  0.9004
  108WAT      O  534   3.072   4.414   0.074  0.5825 -0.8226  0.6227
  108WAT     H1  535   3.151   4.461   0.101 -0.2385  0.9715 -0.0031
  108WAT     H2  536   3.069   4.425  -0.021 -1.2809  0.5442  0.8116
  109WAT      O  537   2.553   1.206   0.387  0.7511 -0.5348 -0.2121
  109WAT     H1  538   2.545   1.132   0.446 -2.5673 -2.0894 -2.2959
  109WAT     H2  539   2.604   1.174   0.313  0.7311 -0.1931 -0.3800
  110WAT      O  540   4.607   3.866   4.785  0.0057  0.2724 -0.2209
  110WAT     H1  541   4.625   3.865   4.879  2.3266 -2.0440 -0.5704
  110WAT     H2  542   4.690   3.893   4.746 -0.1429 -1.2066 -1.6642
  111WAT      O  543   2.735   4.496   5.788  0.4691 -0.1948  0.6121
  111WAT     H1  544   2.806   4.558   5.804 -0.4974  0.7026  1.5698
  111WAT     H2  545   2.694   4.528   5.707  1.4823 -1.0528 -0.2663
  112WAT      O  546   3.463   0.236   0.296  0.4179 -0.8959 -0.6386
  112WAT     H1  547   3.485   0.168   0.360 -3.8972 -1.2830  0.7743
  112WAT     H2  548   3.426   0.189   0.222 -0.0137 -0.1966 -0.8754
  113WAT      O  549   3.409   4.094   4.816  0.2477  0.2575  0.6896
  113WAT     H1  550   3.361   4.103   4.899  1.1248  1.3037  1.1120
  113WAT     H2  551   3.395   4.177   4.771  2.1433  0.8558  1.1147
  114WAT      O  552   3.791   2.752   5.600 -0.1474 -0.4215  0.1527
  114WAT     H1  553   3.763   2.685   5.537 -2.1687 -0.0873  0.6121
  114WAT     H2  554   3.740   2.829   5.577 -0.2703 -0.0305  1.6298
  115WAT      O  555   0.173   3.632   2.052  0.1013 -0.1017  0.2791
  115WAT     H1  556   0.208   3.547   2.077 -0.5049 -0.9502 -1.5911
  115WAT     H2  557   0.079   3.619   2.048  0.0326  0.5472 -0.4219
  116WAT      O  558   0.524   4.202   4.645  0.1844  0.6720 -0.5076
  116WAT     H1  559   0.488   4.275   4.594 -0.0886  0.9054  0.0032
  116WAT     H2  560   0.459   4.132   4.637  0.6750  0.3124 -1.3901
  117WAT      O  561   3.221   4.449   3.642  0.2617  0.2090  0.2386
  117WAT     H1  562   3.210   4.370   3.590 -0.6530 -0.9983  2.1632
  117WAT     H2  563   3.197   4.520   3.583 -0.4516 -1.0744 -1.0714
  118WAT      O  564   4.335   3.530   5.259 -0.1024  0.2939 -0.2725
  118WAT     H1  565   4.278   3.527   5.335  0.9386  0.9078  0.5594
  118WAT     H2  566   4.280   3.498   5.187 -1.9499  2.1982  0.1854
  119WAT      O  567   0.132   3.348   1.303 -0.0632 -0.0321  0.3704
  119WAT     H1  568   0.085   3.295   1.240  0.5971  0.7853 -0.8418
  119WAT     H2  569   0.185   3.408   1.250  1.8664 -0.4955  1.6591
  120WAT      O  570   4.170   3.609   2.715 -0.1282 -0.3891 -0.4151
  120WAT     H1  571   4.228   3.539   2.685 -0.6904 -0.1680 -2.1326
  120WAT     H2  572   4.229   3.679   2.742  0.4198 -0.4777 -1.3508
  121WAT      O  573   4.291   3.614   4.835 -0.3852 -0.1045 -0.2338
  121WAT     H1  574   4.233   3.606   4.759  0.6721 -1.6686 -0.9392
  121WAT     H2  575   4.377   3.635   4.799 -0.2307  0.9829  0.7005
  122WAT      O  576   2.856   4.740   4.552 -0.1958 -0.3724  0.6119
  122WAT     H1  577   2.887   4.718   4.640  1.9147  0.9455  0.2653
  122WAT     H2  578   2.795   4.812   4.566 -0.1538 -0.4166  1.0390
  123WAT      O  579   2.635   3.932   4.896  0.7559 -0.3913 -0.1618
  123WAT     H1  580   2.607   3.868   4.831 -0.6919  1.4013 -1.3901
  123WAT     H2  581   2.700   3.986   4.851  1.9732 -0.9190  0.8631
  124WAT      O  582   2.004   3.059   0.811 -0.1411  0.5040 -0.1064
  124WAT     H1  583   1.980   2.967   0.827  2.3745 -0.2590 -0.3053
  124WAT     H2  584   2.024   3.094   0.897 -0.2907  0.6406 -0.1255
  125WAT      O  585   3.645   0.724   2.013  0.5511  0.4557 -0.3626
  125WAT     H1  586   3.572   0.723   1.951  0.0063 -0.4035  0.2655
  125WAT     H2  587   3.641   0.810   2.054 -0.5105  0.1989  0.1090
  126WAT      O  588   1.640   2.431   1.043  0.1477 -0.2098  0.3940
  126WAT     H1  589   1.698   2.400   1.113  1.1191  2.0781  0.6935
  126WAT     H2  590   1.687   2.413   0.962  0.5129  0.1090  0.5354
  127WAT      O  591   3.102   0.750   3.792 -0.5952  0.2115 -0.1925
  127WAT     H1  592   3.175   0.809   3.772 -1.2608  0.7335 -1.1561
  127WAT     H2  593   3.129   0.705   3.872  0.0304  1.6646  0.4437
  128WAT      O  594   0.275   3.664   3.304 -0.1016 -0.1428 -0.3204
  128WAT     H1  595   0.236   3.619   3.379 -2.1839  0.2582 -1.0713
  128WAT     H2  596   0.244   3.613   3.228  0.2148  0.6661 -1.0028
  129WAT      O  597   2.448   1.919   5.132  0.1679 -0.3010 -0.0881
  129WAT     H1  598   2.360   1.912   5.095  0.2465 -0.6482 -0.2155
  129WAT     H2  599   2.435   1.911   5.227  0.0088  0.1934 -0.0623
  130WAT      O  600   2.812   1.873   5.225  0.1778  0.7295  0.1595
  130WAT     H1  601   2.753   1.811   5.182  0.3830  0.9472 -0.4506
  130WAT     H2  602   2.889   1.820   5.247 -0.0453  0.5521  0.5280
  131WAT      O  603   4.370   2.484   3.984 -0.3168 -0.0132  0.4350
  131WAT     H1  604   4.282   2.457   3.956 -0.3032 -0.1549  0.5270
  131WAT     H2  605   4.422   2.404   3.981  0.4060  0.4536 -1.8127
  132WAT      O  606   3.811   1.691   4.816 -0.3042  0.4711 -0.1576
  132WAT     H1  607   3.751   1.760   4.789 -0.2744 -0.1707 -1.9925
  132WAT     H2  608   3.785   1.614   4.765  0.8139 -0.3715  0.4826
  133WAT      O  609   4.409   4.114   4.827 -0.1847  0.8687  0.7356
  133WAT     H1  610   4.396   4.023   4.803  2.5855  0.2458  1.3324
  133WAT     H2  611   4.330   4.159   4.794 -1.2591 -1.5672 -0.2262
  134WAT      O  612   4.639   3.159   0.248 -0.5047  0.1659 -0.2878
  134WAT     H1  613   4.554   3.204   0.241  0.5822  2.2371 -1.3200
  134WAT     H2  614   4.703   3.230   0.240  1.3589 -1.6165 -2.1506
  135WAT      O  615   1.812   4.068   3.791 -0.4910  0.0308  0.7062
  135WAT     H1  616   1.844   4.103   3.874  1.0446  2.3503 -0.7211
  135WAT     H2  617   1.884   4.084   3.730 -1.8120 -0.9918 -1.2169
  136WAT      O  618   1.045   1.781   0.105 -0.0523 -0.1780  0.4465
  136WAT     H1  619   0.980   1.788   0.034  0.9815  0.2397 -0.4905
  136WAT     H2  620   1.104   1.711   0.076 -1.1424 -1.9053  2.1999
  137WAT      O  621   3.008   1.067   4.056  0.0970 -0.4584  0.6617
  137WAT     H1  622   3.061   1.096   4.130 -0.2746  0.4423  0.5938
  137WAT     H2  623   2.928   1.032   4.095  0.3527 -0.9693  0.7275
  138WAT      O  624   3.887   1.325   3.330  0.3426 -0.2899 -0.1418
  138WAT     H1  625   3.848   1.238   3.330  1.6878 -0.9308 -0.6752
  138WAT     H2  626   3.879   1.355   3.421  0.8652 -1.4599  0.3169
  139WAT      O  627   4.849   4.151   1.000 -0.5413  0.5966  0.3593
  139WAT     H1  628   4.826   4.066   0.963  1.0854  0.7082 -1.0699
  139WAT     H2  629   4.765   4.195   1.015 -1.3600 -0.7422 -0.1545
  140WAT      O  630   3.031   4.737   1.862  0.7271  0.5414  0.4351
  140WAT     H1  631   3.032   4.818   1.913 -0.9752  0.3822  0.7857
  140WAT     H2  632   3.092   4.679   1.907  1.4135  1.3695  0.6031
  141WAT      O  633   2.543   4.594   1.915 -0.0474  0.2435  0.1221
  141WAT     H1  634   2.470   4.578   1.855 -0.3096 -1.6924  0.8505
  141WAT     H2  635   2.614   4.626   1.860 -0.6950 -0.2049 -1.0028
  142WAT      O  636   2.432   0.045   5.763  0.0638  0.3675 -0.4800
  142WAT     H1  637   2.527   0.049   5.776  0.0284  0.2992 -0.1878
  142WAT     H2  638   2.421   0.030   5.669  0.3275  1.0013 -0.6172
  143WAT      O  639   1.250   2.305   2.280 -0.1102 -0.2480  0.0007
  143WAT     H1  640   1.339   2.277   2.304 -0.0958 -0.5096 -0.3508
  143WAT     H2  641   1.232   2.260   2.198  0.2014  1.3640 -0.9931
  144WAT      O  642   2.433   4.387   2.120 -0.2012 -0.4829 -0.2826
  144WAT     H1  643   2.408   4.296   2.107 -0.4726 -0.4238 -0.1734
  144WAT     H2  644   2.468   4.414   2.035  1.5009 -1.1915  0.1425
  145WAT      O  645   4.368   3.191   4.230  0.0516  0.3386 -0.1312
  145WAT     H1  646   4.349   3.108   4.273  2.5435 -0.3148 -0.1077
  145WAT     H2  647   4.440   3.171   4.170  0.7492  2.4694 -0.1143
  146WAT      O  648   4.252   2.191   4.188  0.0930  0.4043 -0.2579
  146WAT     H1  649   4.300   2.218   4.266  0.2245 -0.9337  0.1519
  146WAT     H2  650   4.317   2.194   4.118  0.0714  1.2400 -0.2551
  147WAT      O  651   2.970   2.385   4.822 -0.3574 -0.4415  0.1123
  147WAT     H1  652   2.893   2.407   4.875  1.3987  1.6669  1.9457
  147WAT     H2  653   2.975   2.456   4.757 -0.3000 -0.9360 -0.4354
  148WAT      O  654   0.345   4.323   2.251  0.2339 -0.1365  0.6978
  148WAT     H1  655   0.415   4.385   2.231 -0.4867  0.4535 -0.0238
  148WAT     H2  656   0.312   4.350   2.336  0.4591 -0.0341  0.7539
  149WAT      O  657   3.673   5.119   1.275  0.2601  0.1059  0.0288
  149WAT     H1  658   3.615   5.192   1.255  0.7747  0.9335  1.4204
  149WAT     H2  659   3.614   5.044   1.287 -0.3845  0.5771 -0.1434
  150WAT      O  660   2.151   0.429   2.837 -0.4092 -0.1337  0.0552
  150WAT     H1  661   2.125   0.500   2.778  0.7511  0.7911  0.6157
  150WAT     H2  662   2.068   0.391   2.866 -1.0929  1.2788  0.0767
  151WAT      O  663   4.150   0.350   1.699 -0.1082 -1.0187 -0.3815
  151WAT     H1  664   4.086   0.406   1.744 -0.2931  0.0263 -1.8711
  151WAT     H2  665   4.235   0.381   1.731 -0.2548 -0.7604 -0.2332
  152WAT      O  666   4.411   0.884   3.232  0.0177  0.0811  0.2663
  152WAT     H1  667   4.475   0.912   3.297  1.6668 -2.0102 -0.3171
  152WAT     H2  668   4.346   0.834   3.282  0.4351 -0.2246  0.5032
  153WAT      O  669   4.244   3.758   2.210 -0.3903  0.6298  0.5127
  153WAT     H1  670   4.311   3.776   2.275 -0.2130 -1.2273  0.9014
  153WAT     H2  671   4.161   3.777   2.255 -0.1786  1.7184  0.4469
  154WAT      O  672   2.767   0.266   2.716 -0.6285  0.5777 -0.0103
  154WAT     H1  673   2.816   0.347   2.731  0.0865  0.0255  0.7789
  154WAT     H2  674   2.723   0.278   2.632  1.3982  0.8475 -1.0826
  155WAT      O  675   4.313   4.895   2.864 -0.2208 -0.2207 -0.0873
  155WAT     H1  676   4.386   4.849   2.823  0.2061  0.8794 -0.6080
  155WAT     H2  677   4.239   4.883   2.804 -0.1568 -0.3512 -0.1387
  156WAT      O  678   2.106   5.016   2.480 -0.5236  0.6534 -0.2826
  156WAT     H1  679   2.056   5.033   2.400 -3.2979  0.4246  1.2559
  156WAT     H2  680   2.158   5.094   2.493 -0.4451  0.9270 -2.0040
  157WAT      O  681   2.025   4.575   5.230 -0.4746  0.6190  0.2460
  157WAT     H1  682   2.017   4.508   5.162  0.4771 -0.0731  0.7831
  157WAT     H2  683   1.941   4.574   5.275 -0.3727 -0.4577  0.4450
  158WAT      O  684   3.443   5.533   2.351  0.2223  0.0838  0.5537
  158WAT     H1  685   3.530   5.568   2.371  0.2498  0.4599 -0.1821
  158WAT     H2  686   3.432   5.550   2.257 -0.5625 -0.1461  0.6001
  159WAT      O  687   2.433   4.673   1.477 -0.3389 -0.6130 -0.5081
  159WAT     H1  688   2.360   4.712   1.525  0.1664 -1.8062  1.3498
  159WAT     H2  689   2.403   4.669   1.386 -0.9036  2.7974 -0.6101
  160WAT      O  690   1.421   3.856   4.432 -0.3290  0.1856  0.3593
  160WAT     H1  691   1.361   3.794   4.473 -0.1385  0.1448  0.5784
  160WAT     H2  692   1.499   3.854   4.487 -0.6452  1.2810  0.8817
  161WAT      O  693   4.471   1.305   2.082 -0.4190 -0.0281 -0.1886
  161WAT     H1  694   4.499   1.395   2.068  0.7656 -0.2503  0.6228
  161WAT     H2  695   4.388   1.313   2.129  0.2447  0.6647  0.9175
  162WAT      O  696   3.777   2.294   1.586 -0.1690  0.2052 -0.1214
  162WAT     H1  697   3.710   2.350   1.549  0.0335 -0.3707 -1.4301
  162WAT     H2  698   3.745   2.205   1.572  1.2586 -0.1214 -1.6589
  163WAT      O  699   4.267   4.942   0.080  0.1899 -0.0819 -0.1876
  163WAT     H1  700   4.349   4.984   0.106 -0.0008  0.8235 -0.9983
  163WAT     H2  701   4.209   4.953   0.155  1.0901 -1.6156  0.8057
  164WAT      O  702   4.390   2.366   2.971 -0.1823  0.3013 -0.0369
  164WAT     H1  703   4.342   2.448   2.961 -0.2237  0.1743 -0.9361
  164WAT     H2  704   4.355   2.308   2.903  0.7960  0.0017 -0.3131
  165WAT      O  705   3.894   4.239   3.263  0.4038 -0.0258 -0.2864
  165WAT     H1  706   3.970   4.266   3.212 -0.2545  0.5176 -0.9996
  165WAT     H2  707   3.837   4.316   3.263  0.4931  0.0827  1.4845
  166WAT      O  708   1.467   3.649   0.214 -0.3641 -0.7840 -0.4256
  166WAT     H1  709   1.477   3.613   0.126 -1.7583 -0.9381 -0.5492
  166WAT     H2  710   1.421   3.581   0.263 -1.9420  0.3103 -0.3152
  167WAT      O  711   3.647   2.030   1.805  0.7278  0.1431 -0.0789
  167WAT     H1  712   3.654   2.034   1.900  1.1534 -0.4178 -0.0801
  167WAT     H2  713   3.637   1.937   1.786  0.5641  0.2603 -0.5775
  168WAT      O  714   1.040   1.518   1.789  0.1654  0.4226  0.0038
  168WAT     H1  715   1.057   1.510   1.883 -1.5805 -1.0014  0.2558
  168WAT     H2  716   0.947   1.543   1.784  0.2094  0.3800 -1.3331
  169WAT      O  717   3.681   0.121   3.322 -0.0492  0.4002 -0.1590
  169WAT     H1  718   3.664   0.215   3.323 -0.1040  0.4379  2.5748
  169WAT     H2  719   3.774   0.114   3.299 -0.3085  0.9970 -1.5237
  170WAT      O  720   4.358   1.652   1.888  0.1102  0.4744 -0.0466
  170WAT     H1  721   4.277   1.701   1.877 -0.9262 -0.7732  1.5815
  170WAT     H2  722   4.347   1.605   1.970  1.2638 -2.0542 -1.2320
  171WAT      O  723   2.399   4.879   2.860 -0.2596 -0.2370 -0.3609
  171WAT     H1  724   2.494   4.874   2.847 -0.2963 -0.7871 -0.4376
  171WAT     H2  725   2.368   4.791   2.843 -0.6282 -0.3755  0.9214
  172WAT      O  726   3.647   4.540   4.500  0.4811  0.0397 -0.1694
  172WAT     H1  727   3.594   4.470   4.539 -0.0928  1.1749  1.2060
  172WAT     H2  728   3.728   4.540   4.552  0.7569 -0.0346 -0.5987
  173WAT      O  729   2.717   0.337   1.613  0.4264 -0.4914 -0.8044
  173WAT     H1  730   2.756   0.268   1.667  1.7867  1.3526  0.7443
  173WAT     H2  731   2.792   0.378   1.570  0.0179  1.6098  0.3495
  174WAT      O  732   3.870   2.904   2.836  0.1927 -0.0956  0.3695
  174WAT     H1  733   3.777   2.890   2.850  0.1713 -1.2337 -0.7375
  174WAT     H2  734   3.912   2.823   2.863  0.7948  0.1568  0.2247
  175WAT      O  735   0.422   3.015   5.178  0.0303 -0.4013 -0.3631
  175WAT     H1  736   0.388   2.925   5.177 -2.0142  0.3029 -0.1372
  175WAT     H2  737   0.351   3.066   5.217  1.4781  1.2013  0.2733
  176WAT      O  738   3.409   5.575   5.060  0.4697  0.2153  0.4302
  176WAT     H1  739   3.477   5.598   4.997  1.2971 -0.3104  1.1171
  176WAT     H2  740   3.330   5.562   5.006  1.5320 -1.8925 -0.7182
  177WAT      O  741   3.834   1.235   2.426 -0.3643 -0.7631  0.0102
  177WAT     H1  742   3.848   1.212   2.517 -1.6457 -1.5352  0.0465
  177WAT     H2  743   3.852   1.329   2.421 -0.1627 -0.7425  1.0292
  178WAT      O  744   2.894   2.446   1.535 -0.4969  0.2919  0.1840
  178WAT     H1  745   2.857   2.531   1.510 -2.7099 -0.5224  0.4878
  178WAT     H2  746   2.821   2.384   1.526  0.9925 -1.5550  0.1874
  179WAT      O  747   2.487   4.286   4.755  0.2338  0.0654 -0.0596
  179WAT     H1  748   2.564   4.343   4.748 -0.7578  1.6072  0.8748
  179WAT     H2  749   2.486   4.259   4.847 -0.0871 -0.3447 -0.1827
  180WAT      O  750   3.666   4.834   2.159  0.1664 -0.6785 -0.3068
  180WAT     H1  751   3.601   4.798   2.098 -0.3873  1.8115 -1.2957
  180WAT     H2  752   3.741   4.857   2.104  0.3327  0.0271  0.2058
  181WAT      O  753   4.318   0.644   5.293  0.1263 -0.4594  0.1795
  181WAT     H1  754   4.398   0.673   5.250  1.2487 -2.7904  0.5308
  181WAT     H2  755   4.265   0.607   5.223 -0.1927  0.1318  0.1041
  182WAT      O  756   3.850   5.330   2.304 -0.2086 -0.8412 -0.0587
  182WAT     H1  757   3.782   5.266   2.282  0.3156 -1.1228 -0.9210
  182WAT     H2  758   3.896   5.290   2.378 -3.0559  0.8807  2.9346
  183WAT      O  759   3.773   1.974   1.087  0.2411  0.0595  0.1153
  183WAT     H1  760   3.809   2.055   1.050 -4.2721  1.6743 -1.4520
  183WAT     H2  761   3.693   2.001   1.132 -0.6772 -3.3956  0.8963
  184WAT      O  762   0.568   3.473   1.495  0.0957  0.2050 -0.3160
  184WAT     H1  763   0.489   3.422   1.479 -0.4870  1.1150 -0.4448
  184WAT     H2  764   0.539   3.545   1.551  0.9816  0.1630  0.2081
  185WAT      O  765   4.492   4.726   2.727 -0.2539 -0.2679 -0.3529
  185WAT     H1  766   4.580   4.760   2.745  0.0724 -0.6316 -1.2384
  185WAT     H2  767   4.506   4.635   2.702 -1.0435 -0.8431  1.1236
  186WAT      O  768   2.708   5.484   5.336  0.0715  0.3244  1.2170
  186WAT     H1  769   2.708   5.440   5.251  1.6535  2.3395  0.0758
  186WAT     H2  770   2.628   5.537   5.334  0.3598  0.7544  0.7403
  187WAT      O  771   3.999   1.414   2.910  0.1863 -0.5028 -0.2865
  187WAT     H1  772   4.054   1.492   2.918  1.1133 -1.0956 -0.6337
  187WAT     H2  773   3.912   1.442   2.938  0.9389  0.1537  1.5834
  188WAT      O  774   3.133   3.056   0.175 -0.3264  0.8665 -0.3364
  188WAT     H1  775   3.103   2.968   0.152 -0.0257  0.6618  0.0354
  188WAT     H2  776   3.054   3.103   0.199 -0.4870  0.6875 -0.5176
  189WAT      O  777   2.565   1.777   2.970  0.0441 -0.3714 -0.3097
  189WAT     H1  778   2.656   1.757   2.993  0.4435  1.7527  0.1168
  189WAT     H2  779   2.513   1.718   3.025  1.1206  0.4912  1.7570
  190WAT      O  780   3.648   0.091   2.634 -0.1825 -0.0151  0.1872
  190WAT     H1  781   3.652   0.032   2.559  0.2563 -0.2297  0.3771
  190WAT     H2  782   3.687   0.173   2.603 -0.3022  0.0053  0.0873
  191WAT      O  783   3.215   0.364   0.758 -0.5624 -0.6018  0.1404
  191WAT     H1  784   3.154   0.348   0.686  0.1018 -1.8933 -0.1668
  191WAT     H2  785   3.293   0.314   0.734  0.6965  1.1469  0.4443
  192WAT      O  786   3.002   1.061   2.603  0.0918  0.1737 -0.0550
  192WAT     H1  787   3.065   1.072   2.675  1.3355  0.2904 -1.1128
  192WAT     H2  788   2.989   0.967   2.597  0.7923  0.0857 -0.3264
  193WAT      O  789   1.854   4.225   4.471  0.3960 -0.3171 -0.4310
  193WAT     H1  790   1.887   4.311   4.497  1.3374 -1.0913  1.0894
  193WAT     H2  791   1.909   4.199   4.397 -0.6762  0.8630 -1.6867
  194WAT      O  792   2.022   5.520   2.260 -0.6990 -0.1582 -0.3200
  194WAT     H1  793   1.961   5.452   2.288 -1.7081  0.7475 -0.2622
  194WAT     H2  794   2.059   5.487   2.178  0.6886 -1.8744  0.9397
  195WAT      O  795   2.536   1.490   5.287 -0.3933 -0.2971 -0.0696
  195WAT     H1  796   2.447   1.493   5.323 -0.9114 -1.4302 -1.1643
  195WAT     H2  797   2.531   1.426   5.216  0.7419  1.3471 -1.7232
  196WAT      O  798   0.003   3.193   1.126  0.0491  0.1374 -0.0448
  196WAT     H1  799  -0.029   3.198   1.036  0.6241 -1.2922 -0.3467
  196WAT     H2  800  -0.064   3.145   1.173  1.3955 -2.4582 -0.5797
  197WAT      O  801   4.090   3.482   0.754  0.1839 -0.1051 -0.5991
  197WAT     H1  802   4.012   3.473   0.700 -0.1269  0.9053 -0.3408
  197WAT     H2  803   4.094   3.575   0.775  0.8281 -0.3291  0.3323
  198WAT      O  804   4.004   2.333   1.408  0.0694 -0.5970  0.2530
  198WAT     H1  805   3.929   2.307   1.460  0.2649  0.0369  0.8628
  198WAT     H2  806   3.984   2.422   1.378  1.0783  0.0663  1.4384
  199WAT      O  807   2.804   4.810   5.675 -0.3104 -0.3989  0.1134
  199WAT     H1  808   2.813   4.768   5.760 -0.5378 -0.4088  0.1315
  199WAT     H2  809   2.777   4.900   5.694  0.7433 -0.0645  0.1021
  200WAT      O  810   2.802   4.296   2.070  0.0754 -0.1746 -0.1605
  200WAT     H1  811   2.877   4.356   2.071  0.8781 -1.1291 -0.3007
  200WAT     H2  812   2.736   4.338   2.125  1.1517  0.1567  0.9189
  201WAT      O  813   3.511   4.526   0.764 -0.5458 -0.9007 -0.0515
  201WAT     H1  814   3.423   4.538   0.799 -1.3635 -1.0549 -1.9715
  201WAT     H2  815   3.498   4.495   0.675  1.4509 -0.2960 -0.6027
  202WAT      O  816   4.877   3.523   1.964 -0.2705 -0.1195  0.2658
  202WAT     H1  817   4.816   3.468   2.014  0.4208  0.1365  1.4244
  202WAT     H2  818   4.863   3.611   1.998 -0.5520  0.2429 -0.7672
  203WAT      O  819   2.715   3.691   0.769 -0.2296  0.6348 -0.7005
  203WAT     H1  820   2.792   3.717   0.820 -0.1438 -1.9261  0.5903
  203WAT     H2  821   2.642   3.700   0.830 -0.2052 -1.9126 -0.2139
  204WAT      O  822   0.372   3.110   1.153  0.2151  0.0866 -0.0900
  204WAT     H1  823   0.445   3.079   1.099  1.1735  1.0780  0.5836
  204WAT     H2  824   0.337   3.186   1.106  0.3400  0.2842  0.1334
  205WAT      O  825   4.929   3.710   3.707  0.3005  0.4508  0.1861
  205WAT     H1  826   4.985   3.649   3.755  0.5274  0.9973  0.6167
  205WAT     H2  827   4.854   3.657   3.680  0.4761 -0.0080  0.5906
  206WAT      O  828   1.783   2.680   2.166  0.0574 -0.7354  0.3682
  206WAT     H1  829   1.690   2.690   2.183 -0.0727 -0.3836 -0.4876
  206WAT     H2  830   1.790   2.596   2.121  0.3887 -1.6307  2.0225
  207WAT      O  831   2.630   5.453   3.753  0.2463  0.7715  0.3517
  207WAT     H1  832   2.723   5.470   3.773  0.2233  2.1396 -0.5650
  207WAT     H2  833   2.597   5.536   3.720 -1.6179  0.6228  1.6781
  208WAT      O  834   3.019   0.391   0.231  0.2869 -0.0989 -0.0650
  208WAT     H1  835   3.015   0.297   0.246 -1.9937 -0.0367  0.0872
  208WAT     H2  836   2.991   0.430   0.313 -1.4140  0.5983 -0.9376
  209WAT      O  837   3.465   2.292   3.316  0.2610  0.8090  0.2714
  209WAT     H1  838   3.518   2.320   3.242  0.7639 -1.6742 -0.3856
  209WAT     H2  839   3.522   2.233   3.365 -0.6584  1.0605  1.7011
  210WAT      O  840   0.626   4.138   2.653 -0.5084 -0.1314  0.1679
  210WAT     H1  841   0.586   4.060   2.690  1.0760 -1.0220  0.0858
  210WAT     H2  842   0.590   4.210   2.704 -0.5614 -1.0873  1.5206
  211WAT      O  843   2.841   3.910   2.320 -0.0007  0.0707 -0.0534
  211WAT     H1  844   2.895   3.932   2.395  0.8815  0.0671 -0.6762
  211WAT     H2  845   2.759   3.959   2.333  0.6760  1.1526  0.2114
  212WAT      O  846   3.120   2.773   1.974 -0.0451  0.2678 -0.2291
  212WAT     H1  847   3.123   2.708   2.044 -1.1228  0.1700 -0.2642
  212WAT     H2  848   3.187   2.744   1.913  1.6086  0.8894  1.1969
  213WAT      O  849   3.174   5.424   4.400 -0.9207  0.5044 -0.4895
  213WAT     H1  850   3.224   5.349   4.434 -1.8072  0.2506  0.2945
  213WAT     H2  851   3.155   5.401   4.309 -3.5695 -1.5866  0.4476
  214WAT      O  852   4.012   2.857   1.885  0.6223  0.0426  0.4852
  214WAT     H1  853   3.980   2.779   1.930 -1.7234 -0.4411 -1.8004
  214WAT     H2  854   3.938   2.917   1.883  1.2227  0.8105 -0.9807
  215WAT      O  855   0.832   2.026   5.652 -0.0993  0.0435 -0.7634
  215WAT     H1  856   0.861   2.041   5.742 -0.1107  1.7140 -0.9909
  215WAT     H2  857   0.802   1.936   5.651  0.5540 -0.2244  0.7269
  216WAT      O  858   4.045   0.495   3.060  0.3162 -0.0928 -0.1134
  216WAT     H1  859   3.997   0.412   3.068 -0.6060  0.3435 -0.9925
  216WAT     H2  860   4.040   0.534   3.147 -0.1725 -0.4524  0.0240
  217WAT      O  861   4.519   1.933   3.964 -0.0393 -1.1902 -0.2370
  217WAT     H1  862   4.553   2.005   4.017 -1.0716  0.3668 -1.5658
  217WAT     H2  863   4.435   1.911   4.005 -1.2634  0.6086 -1.5871
  218WAT      O  864   3.332   4.312   4.709 -0.5239 -0.8250 -0.4220
  218WAT     H1  865   3.272   4.308   4.635 -0.1355  0.6910 -0.8607
  218WAT     H2  866   3.310   4.395   4.752 -0.6881 -1.6364  1.1308
  219WAT      O  867   4.461   1.562   3.874  0.4049 -0.3416 -0.1687
  219WAT     H1  868   4.504   1.559   3.959 -0.8054 -0.8499  0.4454
  219WAT     H2  869   4.396   1.632   3.881 -0.9020 -1.5082 -0.0469
  220WAT      O  870   3.033   4.083   0.331  0.2451 -0.0981 -0.2416
  220WAT     H1  871   2.986   4.165   0.321 -0.5822 -0.7441 -2.0620
  220WAT     H2  872   3.053   4.055   0.241  3.5509 -0.2179  0.3850
  221WAT      O  873   3.395   5.512   3.666  0.0753  0.0272 -0.6702
  221WAT     H1  874   3.309   5.546   3.690 -0.7220 -0.6370 -2.4666
  221WAT     H2  875   3.416   5.556   3.584  0.5921 -1.1921 -1.2134
  222WAT      O  876   3.586   0.120   5.475 -0.1405 -0.4283  0.4043
  222WAT     H1  877   3.601   0.214   5.466 -0.1106 -0.5584 -1.1466
  222WAT     H2  878   3.659   0.089   5.529 -0.3429  0.4783  1.2238
  223WAT      O  879   2.306   1.026   2.388  0.5562 -0.6239 -0.2204
  223WAT     H1  880   2.309   0.945   2.336  0.3196 -0.1867 -0.9211
  223WAT     H2  881   2.390   1.028   2.434  1.1330 -0.5738 -1.2544
  224WAT      O  882   3.834   3.103   1.739 -0.1485  0.3001  0.0902
  224WAT     H1  883   3.808   3.145   1.821 -1.4511 -0.6884  0.2210
  224WAT     H2  884   3.837   3.174   1.675 -0.2034  0.9111  0.7571
  225WAT      O  885   0.520   3.848   4.217  0.0834  0.2713  0.0937
  225WAT     H1  886   0.515   3.940   4.245 -0.4738 -0.0411  1.0683
  225WAT     H2  887   0.496   3.798   4.295 -0.1242 -0.6892 -0.5698
  226WAT      O  888   3.290   1.129   0.429  0.4028  0.6181 -0.0558
  226WAT     H1  889   3.304   1.221   0.452  1.1202  0.4905  0.0571
  226WAT     H2  890   3.364   1.108   0.371 -0.9457  0.7341 -1.9068
  227WAT      O  891   0.587   3.683   3.040 -0.3230  0.0399  0.3656
  227WAT     H1  892   0.528   3.759   3.035 -1.7517 -1.0402  0.0115
  227WAT     H2  893   0.611   3.666   2.949 -0.9239 -0.5931  0.3149
  228WAT      O  894   2.038   1.086   2.172  0.0526 -0.4380  0.0348
  228WAT     H1  895   1.999   1.109   2.088 -2.9191 -0.0095  1.4129
  228WAT     H2  896   2.120   1.137   2.175 -0.3763  0.4789 -2.0394
  229WAT      O  897   4.905   3.719   3.422 -0.3420 -0.1258  0.5768
  229WAT     H1  898   4.916   3.625   3.406  1.0852  0.2180 -0.6778
  229WAT     H2  899   4.947   3.733   3.507 -0.2656 -0.5733  0.6170
  230WAT      O  900   4.315   0.972   1.522  0.2646 -0.4736 -0.5554
  230WAT     H1  901   4.330   0.895   1.577 -0.5990 -0.4797 -0.3051
  230WAT     H2  902   4.388   1.030   1.541 -0.7533  0.1813  1.7679
  231WAT      O  903   3.984   5.543   3.491  0.1462  0.5969  0.1706
  231WAT     H1  904   3.945   5.531   3.578 -1.8872  0.6637 -0.6631
  231WAT     H2  905   3.986   5.456   3.453 -1.5853  0.8861 -0.7007
  232WAT      O  906   4.903   4.390   0.323  0.5061  0.0716  0.1597
  232WAT     H1  907   4.932   4.342   0.400  0.3900  1.3322  1.0205
  232WAT     H2  908   4.818   4.426   0.348  1.1272  1.7349  0.0085
  233WAT      O  909   3.056   1.998   0.250  0.4465  0.2129 -0.2385
  233WAT     H1  910   3.097   2.067   0.198  0.7613  0.1737 -0.0400
  233WAT     H2  911   2.966   2.029   0.264  0.1086 -0.1293 -1.4676
  234WAT      O  912   4.173   3.425   0.436 -0.1357 -0.4081 -0.0478
  234WAT     H1  913   4.099   3.417   0.497  1.1525  0.5772  1.7480
  234WAT     H2  914   4.189   3.335   0.407 -3.3854 -0.4544 -2.3233
  235WAT      O  915   2.396   5.229   4.545 -0.1223  0.3538  0.6237
  235WAT     H1  916   2.305   5.247   4.519  0.4439 -0.1699 -2.0415
  235WAT     H2  917   2.391   5.151   4.599 -1.3321  0.9328  1.4032
  236WAT      O  918   0.755   1.946   0.333 -0.5853  0.6017  0.0963
  236WAT     H1  919   0.735   2.028   0.288 -0.8660  0.0848 -0.7500
  236WAT     H2  920   0.815   1.970   0.403  0.6323  1.2983 -1.1505
  237WAT      O  921   1.932   4.969   3.665 -0.0399 -0.1334  0.0232
  237WAT     H1  922   1.906   5.061   3.670 -0.7439 -0.2994 -0.4777
  237WAT     H2  923   1.929   4.948   3.572 -0.2144 -0.7603  0.1637
  238WAT      O  924   3.595   4.970   4.187 -0.5769 -0.4988  0.7593
  238WAT     H1  925   3.557   5.058   4.189 -0.8413 -0.6204  1.0181
  238WAT     H2  926   3.572   4.936   4.101 -0.0841 -0.1427  0.4779
  239WAT      O  927   1.085   4.174   2.898 -0.0419  0.1502 -0.4210
  239WAT     H1  928   1.029   4.097   2.898  2.3742 -1.7394 -0.9546
  239WAT     H2  929   1.083   4.206   2.988  0.2642 -1.6030  0.2274
  240WAT      O  930   2.116   2.377   3.078  0.6263 -0.3592 -0.0850
  240WAT     H1  931   2.049   2.339   3.133  0.8717 -1.3787 -0.4633
  240WAT     H2  932   2.194   2.325   3.096  1.0549  0.1628 -0.3956
  241WAT      O  933   2.771   4.886   2.422 -0.3611 -0.2427 -0.0048
  241WAT     H1  934   2.680   4.914   2.430 -0.2177  0.5664 -0.9960
  241WAT     H2  935   2.804   4.933   2.346  1.5049  1.1368  1.5749
  242WAT      O  936   0.778   3.062   0.856  0.6421  0.0320 -0.1287
  242WAT     H1  937   0.780   3.102   0.769 -0.1773  2.3220  0.8287
  242WAT     H2  938   0.721   3.119   0.907 -0.3442 -2.2391  1.4787
  243WAT      O  939   3.390   4.654   4.187 -0.5084 -0.1742  0.0517
  243WAT     H1  940   3.400   4.739   4.145  2.1098  1.2946  3.1622
  243WAT     H2  941   3.479   4.623   4.200 -1.3771 -2.8879  0.0680
  244WAT      O  942   2.710   0.460   2.462 -0.2850 -0.0261 -0.9349
  244WAT     H1  943   2.778   0.424   2.404  0.9104  1.2833 -0.3908
  244WAT     H2  944   2.715   0.554   2.450  0.7709  0.4041  2.0519
  245WAT      O  945   0.166   1.752   3.854  0.8343  0.2349  0.0884
  245WAT     H1  946   0.113   1.746   3.775  1.6796 -2.0611 -0.3650
  245WAT     H2  947   0.255   1.771   3.822  0.7638  1.7421  0.6915
  246WAT      O  948   3.755   5.223   5.792  0.5361 -0.1937  0.6851
  246WAT     H1  949   3.734   5.201   5.701  1.6588 -1.2384  0.6560
  246WAT     H2  950   3.705   5.160   5.844  1.4835 -0.9612  0.6995
  247WAT      O  951   3.530   4.714   3.485  0.3928  0.0197  0.2960
  247WAT     H1  952   3.617   4.697   3.450 -0.4948 -0.6971 -1.7125
  247WAT     H2  953   3.535   4.688   3.577  1.8379 -1.6495 -0.2064
  248WAT      O  954   3.397   5.605   1.352  0.4737 -0.3601  0.1358
  248WAT     H1  955   3.484   5.607   1.314  0.6121  0.5931  0.4662
  248WAT     H2  956   3.362   5.693   1.337 -0.4303 -0.7216  0.0140
  249WAT      O  957   3.211   4.282   3.415 -0.2484 -0.0939 -0.0017
  249WAT     H1  958   3.296   4.308   3.379 -0.1775 -0.5714 -0.1917
  249WAT     H2  959   3.203   4.190   3.391 -1.5522  0.3467 -1.4373
  250WAT      O  960   2.728   4.216   1.819  0.2325 -0.5446 -0.0504
  250WAT     H1  961   2.750   4.272   1.893  1.4663 -1.3078  0.1778
  250WAT     H2  962   2.665   4.153   1.854  1.2812 -1.2925  0.5299
  251WAT      O  963   2.495   3.866   2.566 -0.3222 -0.5280 -0.5836
  251WAT     H1  964   2.556   3.828   2.629 -0.3148  0.3460 -0.0549
  251WAT     H2  965   2.409   3.860   2.608 -0.3295 -0.0148 -0.5180
  252WAT      O  966   0.628   3.572   0.093 -0.5028 -0.2014 -0.5729
  252WAT     H1  967   0.719   3.557   0.065 -0.5965  0.5803 -1.3162
  252WAT     H2  968   0.636   3.613   0.179 -0.1965 -1.8662  0.2289
  253WAT      O  969   0.086   2.838   1.078 -0.2774  0.0594 -0.0781
  253WAT     H1  970   0.003   2.830   1.031 -0.4921  1.6810 -0.0335
  253WAT     H2  971   0.139   2.897   1.025  0.2549  0.2830  0.6774
  254WAT      O  972   3.890   0.098   1.219 -0.6540 -0.3173 -0.0465
  254WAT     H1  973   3.907   0.135   1.306  2.1770 -2.7676  0.6045
  254WAT     H2  974   3.971   0.113   1.171 -2.1252  0.8709 -2.3206
  255WAT      O  975   4.207   2.337   2.770  0.1948 -0.1355 -0.0800
  255WAT     H1  976   4.166   2.291   2.697 -0.4917  0.9004 -0.3723
  255WAT     H2  977   4.265   2.401   2.729  0.4058 -0.0806  0.2998
  256WAT      O  978   4.722   3.683   2.564  0.6435 -0.6169 -0.5035
  256WAT     H1  979   4.735   3.751   2.630  0.6201 -1.3721  0.3021
  256WAT     H2  980   4.726   3.729   2.481 -0.8249  0.6051  0.0515
  257WAT      O  981   4.091   4.478   1.228  0.4387 -0.0810 -0.2012
  257WAT     H1  982   4.011   4.511   1.269  1.7584  0.6577  1.9864
  257WAT     H2  983   4.083   4.502   1.136 -0.6742  2.4739  0.4572
  258WAT      O  984   1.715   3.583   2.734  0.6601 -0.1175 -0.2553
  258WAT     H1  985   1.698   3.676   2.751  0.7120 -0.4355  1.6333
  258WAT     H2  986   1.659   3.536   2.796  1.3239 -1.3391 -0.5582
  259WAT      O  987   3.163   5.268   2.276 -0.1783  0.2738 -0.0412
  259WAT     H1  988   3.154   5.358   2.244  0.9228  0.2462 -0.4514
  259WAT     H2  989   3.233   5.273   2.342  0.2869 -0.3820 -0.4760
  260WAT      O  990   2.104   4.474   0.934 -0.0350  0.0191  0.8500
  260WAT     H1  991   2.169   4.418   0.892 -0.5965  0.0614 -0.1262
  260WAT     H2  992   2.021   4.430   0.918 -0.6028  1.5255 -0.7367
  261WAT      O  993   4.025   3.614   0.131  0.0193  0.2495 -0.1861
  261WAT     H1  994   4.038   3.687   0.071  2.1081 -0.2611 -0.4488
  261WAT     H2  995   3.984   3.546   0.077 -2.1885  1.2495  0.1270
  262WAT      O  996   3.436   4.295   3.249  0.0925  0.2301  0.1081
  262WAT     H1  997   3.447   4.334   3.162 -1.5584 -2.3473 -1.3977
  262WAT     H2  998   3.481   4.210   3.243 -0.3539 -0.1360  1.6462
  263WAT      O  999   2.382   4.029   4.734  0.0298 -0.8006  0.3146
  263WAT     H1 1000   2.391   4.123   4.718  0.6649 -1.1257 -1.5657
  263WAT     H2 1001   2.449   4.010   4.799 -1.1442  0.2706  1.9142
  264WAT      O 1002   1.784   2.977   4.335 -0.3796 -0.0506 -0.0697
  264WAT     H1 1003   1.823   3.064   4.325 -0.3484 -0.2423 -2.2760
  264WAT     H2 1004   1.697   2.995   4.372  0.3710  0.7017  1.4084
  265WAT      O 1005   4.500   4.290   5.029  0.2626  0.1212  0.3229
  265WAT     H1 1006   4.453   4.235   4.967  1.3559 -0.6886  0.1854
  265WAT     H2 1007   4.490   4.245   5.113 -1.7135  1.5158  0.9183
  266WAT      O 1008   2.234   2.528   0.451  0.1107  0.4750  0.3880
  266WAT     H1 1009   2.253   2.620   0.471  1.7746  0.0200  1.0573
  266WAT     H2 1010   2.163   2.505   0.510 -1.3971  1.7305 -0.8526
  267WAT      O 1011   0.719   3.245   1.678 -0.1214  0.1210  0.3795
  267WAT     H1 1012   0.626   3.227   1.667 -0.0587  0.7663 -1.5504
  267WAT     H2 1013   0.733   3.330   1.637  1.3425 -0.0297  0.4930
  268WAT      O 1014   2.629   5.396   1.324 -0.5052 -0.2410  0.3387
  268WAT     H1 1015   2.666   5.430   1.243 -2.1085 -2.6239 -1.5351
  268WAT     H2 1016   2.537   5.424   1.321 -0.8954 -1.4446  0.6640
  269WAT      O 1017   2.406   2.031   3.538 -0.2508  0.7147 -0.3182
  269WAT     H1 1018   2.330   2.083   3.512 -0.7130  0.2695  0.1057
  269WAT     H2 1019   2.481   2.089   3.526 -0.8216  1.7739  0.9384
  270WAT      O 1020   3.552   4.705   0.955 -1.0703 -0.1383 -0.1309
  270WAT     H1 1021   3.558   4.634   0.891 -0.6507  0.1372 -0.3996
  270WAT     H2 1022   3.531   4.661   1.037 -0.9906 -0.5571 -0.3311
  271WAT      O 1023   3.440   0.924   0.776  0.2285 -0.3395 -0.1895
  271WAT     H1 1024   3.438   0.829   0.791 -0.7847 -0.5287 -1.3088
  271WAT     H2 1025   3.455   0.932   0.682  0.3983  0.6252 -0.0856
  272WAT      O 1026   4.877   1.712   1.171  0.1141 -0.1835 -0.3694
  272WAT     H1 1027   4.954   1.657   1.156  0.4579  0.6688 -1.8694
  272WAT     H2 1028   4.868   1.715   1.267  1.9900 -0.2355 -0.1587
  273WAT      O 1029   3.861   3.990   5.539 -0.1819  0.3036  0.2478
  273WAT     H1 1030   3.781   4.010   5.489 -0.1866 -0.4800 -0.0776
  273WAT     H2 1031   3.924   4.055   5.509 -0.4829  0.4717 -0.0385
  274WAT      O 1032   3.487   0.529   1.096 -0.0297 -0.6986 -0.0995
  274WAT     H1 1033   3.395   0.517   1.117 -0.5611  0.4785 -1.5443
  274WAT     H2 1034   3.530   0.542   1.180 -1.4021  0.0008  0.5235
  275WAT      O 1035   4.345   3.200   0.513 -0.0449  0.3986  0.5156
  275WAT     H1 1036   4.314   3.118   0.552 -1.8065  0.9976  0.4568
  275WAT     H2 1037   4.421   3.224   0.565  0.0171 -0.8512  1.0406
  276WAT      O 1038   3.320   0.923   2.034  0.0658  0.4146 -0.0107
  276WAT     H1 1039   3.318   0.988   1.964 -0.8306  0.4025 -0.0124
  276WAT     H2 1040   3.411   0.921   2.063  0.5401  0.0835 -1.4774
  277WAT      O 1041   1.218   2.197   1.606  0.0950  0.1653  0.0484
  277WAT     H1 1042   1.135   2.193   1.654  0.5816  1.4872  1.0643
  277WAT     H2 1043   1.213   2.279   1.557  1.1074  0.6533  0.7328
  278WAT      O 1044   4.300   3.762   0.587  0.0158 -0.0564  0.7137
  278WAT     H1 1045   4.275   3.747   0.495  1.3745  1.1453  0.1014
  278WAT     H2 1046   4.351   3.684   0.610  1.8819  0.7596 -0.4457
  279WAT      O 1047   2.791   1.783   1.252  0.2228  0.4706  0.2457
  279WAT     H1 1048   2.852   1.829   1.194  2.0695 -0.3741  1.3965
  279WAT     H2 1049   2.759   1.710   1.199  2.8184 -1.0043  0.5541
  280WAT      O 1050   4.644   2.299   2.163 -0.3306  0.6586  0.4364
  280WAT     H1 1051   4.737   2.320   2.153 -0.3006  0.6843  0.7408
  280WAT     H2 1052   4.624   2.326   2.253 -0.3109 -0.5300  0.8230
  281WAT      O 1053   4.243   5.038   3.779 -0.5764 -0.8926 -0.5349
  281WAT     H1 1054   4.234   4.965   3.719  0.9791 -1.5559 -0.0178
  281WAT     H2 1055   4.319   5.087   3.746  1.9590 -2.6757  2.1796
  282WAT      O 1056   3.094   5.598   0.985  0.2758 -0.4549  0.4690
  282WAT     H1 1057   3.137   5.532   1.039  0.9317 -1.1331 -0.8243
  282WAT     H2 1058   3.118   5.574   0.895  0.6004  1.6019 -0.0322
  283WAT      O 1059   3.100   0.161   1.473 -0.2580  0.2447  0.8877
  283WAT     H1 1060   3.171   0.149   1.410 -1.8707  0.7433 -1.1465
  283WAT     H2 1061   3.059   0.075   1.481  0.0406  0.1451  1.4186
  284WAT      O 1062   2.585   0.663   2.614 -1.1139 -0.7085 -0.0434
  284WAT     H1 1063   2.638   0.584   2.610  0.3261  0.1489  1.2106
  284WAT     H2 1064   2.514   0.641   2.675 -0.6236 -1.0000  0.4340
  285WAT      O 1065   4.747   3.808   4.184  0.0270 -0.7031  0.0356
  285WAT     H1 1066   4.660   3.832   4.217 -0.7445 -1.7941 -1.1234
  285WAT     H2 1067   4.797   3.889   4.188 -1.2819  0.1357 -0.0117
  286WAT      O 1068   4.024   0.843   2.384 -0.5561 -0.4200 -0.5122
  286WAT     H1 1069   3.999   0.815   2.472 -1.0520 -0.7696 -0.7577
  286WAT     H2 1070   3.942   0.840   2.334 -0.4215  0.5129 -0.7945
  287WAT      O 1071   2.465   2.191   4.970  0.0754 -0.4241  0.3304
  287WAT     H1 1072   2.503   2.111   5.004  1.9329 -0.0620 -0.7594
  287WAT     H2 1073   2.442   2.170   4.879 -1.0606 -0.2090  0.5508
  288WAT      O 1074   3.737   4.778   5.353  0.4295 -0.5151 -0.1621
  288WAT     H1 1075   3.711   4.773   5.445  2.0909 -1.9441  0.3031
  288WAT     H2 1076   3.812   4.839   5.353 -1.4875  2.0113 -1.1453
  289WAT      O 1077   3.016   3.093   4.446 -0.3463  0.1412  0.3012
  289WAT     H1 1078   2.992   3.050   4.528 -1.1724 -1.8039 -0.8943
  289WAT     H2 1079   3.093   3.045   4.415 -0.3448  0.5157 -0.3029
  290WAT      O 1080   0.318   1.610   2.231 -0.6149  0.3172  0.1452
  290WAT     H1 1081   0.266   1.532   2.212  1.8383 -1.1017 -1.4216
  290WAT     H2 1082   0.293   1.673   2.164 -1.8029  0.4710  0.7210
  291WAT      O 1083   3.901   2.610   1.878  0.1180  0.1940 -0.4913
  291WAT     H1 1084   3.864   2.645   1.797 -0.9634 -0.8930 -0.5026
  291WAT     H2 1085   3.949   2.532   1.851  0.6720  0.4354 -0.2114
  292WAT      O 1086   4.150   4.270   3.451 -0.6895 -0.6353 -0.1027
  292WAT     H1 1087   4.169   4.313   3.368  0.8145  1.2137  1.0807
  292WAT     H2 1088   4.058   4.246   3.446 -1.0705  0.9189 -1.6896
  293WAT      O 1089   3.080   4.917   1.333 -0.2597 -0.0205  0.5801
  293WAT     H1 1090   3.138   4.907   1.257  0.4048 -0.4121  1.1163
  293WAT     H2 1091   3.081   4.830   1.375 -0.2090  0.3257  1.3100
  294WAT      O 1092   0.359   3.801   5.111 -0.2044 -0.0385 -0.3470
  294WAT     H1 1093   0.354   3.866   5.181  1.2937 -1.7402  1.4688
  294WAT     H2 1094   0.436   3.825   5.060  0.4088 -0.4025  0.3843
  295WAT      O 1095   2.740   5.327   5.658 -0.7717 -0.2328 -0.1550
  295WAT     H1 1096   2.807   5.356   5.597 -0.2300  0.4754  0.7457
  295WAT     H2 1097   2.661   5.320   5.606 -0.6138  1.5649 -0.7083
  296WAT      O 1098   2.137   1.083   0.652 -0.0895 -0.3421  0.2173
  296WAT     H1 1099   2.134   1.080   0.747 -1.7108 -1.8172  0.1692
  296WAT     H2 1100   2.121   1.175   0.630  1.4737  0.2437  1.3411
  297WAT      O 1101   4.027   3.737   0.803  0.1748  0.1305  0.5475
  297WAT     H1 1102   4.103   3.783   0.767  0.1521  0.2991  0.7129
  297WAT     H2 1103   3.978   3.805   0.851 -0.8175  0.3458 -0.7139
  298WAT      O 1104   2.006   3.722   2.025  0.2780  0.2421  0.2151
  298WAT     H1 1105   2.030   3.633   1.998  1.4620  0.8945 -1.0752
  298WAT     H2 1106   1.927   3.742   1.975  0.7160  0.3289 -0.4684
  299WAT      O 1107   3.641   3.823   5.824 -0.1784  0.3150 -0.3790
  299WAT     H1 1108   3.666   3.916   5.825  1.3262 -0.0767  0.2193
  299WAT     H2 1109   3.561   3.820   5.878  0.7928  1.0175  1.1830
  300WAT      O 1110   0.924   2.050   0.081 -0.3609  0.1946  0.5072
  300WAT     H1 1111   0.976   2.015   0.154 -1.0697  1.2817  1.5710
  300WAT     H2 1112   0.965   2.134   0.061  0.0347 -0.2477 -0.5993
  301WAT      O 1113   2.858   0.119   3.974 -0.1749 -0.0478  0.5126
  301WAT     H1 1114   2.858   0.215   3.970 -0.4095 -0.0392 -3.1348
  301WAT     H2 1115   2.767   0.095   3.958  0.2103 -0.8139 -0.6876
  302WAT      O 1116   2.795   0.373   0.481 -0.0487 -0.0566 -0.0653
  302WAT     H1 1117   2.777   0.467   0.487  0.4884  0.0017  0.7562
  302WAT     H2 1118   2.730   0.340   0.419 -0.4698  0.7968 -0.0892
  303WAT      O 1119   4.065   3.563   4.260  0.1740  0.8887  0.4453
  303WAT     H1 1120   4.084   3.645   4.213 -0.3395  0.5572 -0.3562
  303WAT     H2 1121   4.098   3.494   4.202 -2.0624  0.3714 -0.2938
  304WAT      O 1122   2.113   3.198   1.058 -0.3093  0.5165  0.5293
  304WAT     H1 1123   2.058   3.150   1.121 -0.8909  0.3117 -0.1181
  304WAT     H2 1124   2.197   3.153   1.061 -0.7514 -0.3782  0.1620
  305WAT      O 1125   2.541   5.348   0.126 -0.3655 -0.3350  0.7643
  305WAT     H1 1126   2.466   5.391   0.167  0.1928 -0.2218  1.7054
  305WAT     H2 1127   2.574   5.411   0.063 -0.0402  0.3263  1.5682
  306WAT      O 1128   3.709   4.415   1.867  0.9030 -0.1884 -0.2462
  306WAT     H1 1129   3.727   4.391   1.776 -0.6648 -1.5194 -0.2504
  306WAT     H2 1130   3.794   4.413   1.910  1.6477  0.3389 -1.6474
  307WAT      O 1131   1.603   3.423   1.993  0.0310  0.3620 -0.0870
  307WAT     H1 1132   1.538   3.477   1.947  1.1718  1.8191 -0.0397
  307WAT     H2 1133   1.656   3.384   1.923 -0.3815 -0.2050 -0.0955
  308WAT      O 1134   2.389   1.423   2.373 -0.4360  0.1897 -0.1915
  308WAT     H1 1135   2.416   1.502   2.327  1.7473 -0.3069  0.0906
  308WAT     H2 1136   2.353   1.454   2.456 -0.4044  0.9186 -0.4441
  309WAT      O 1137   2.699   4.529   4.482 -0.3878  0.4102  0.0968
  309WAT     H1 1138   2.715   4.478   4.562  0.2853  0.1307 -0.2037
  309WAT     H2 1139   2.769   4.595   4.482  0.2888 -0.2877 -0.8138
  310WAT      O 1140   2.585   2.335   0.829 -0.0491 -0.5771 -0.6679
  310WAT     H1 1141   2.615   2.276   0.760  1.0957 -1.5589  0.6100
  310WAT     H2 1142   2.649   2.324   0.900 -1.6653 -0.3032  0.9156
  311WAT      O 1143   4.211   1.773   4.736  0.2599 -0.2550  0.2082
  311WAT     H1 1144   4.164   1.727   4.807  1.0938 -1.5596 -0.0444
  311WAT     H2 1145   4.257   1.703   4.689 -2.5995  0.0457 -3.5243
  312WAT      O 1146   3.618   3.941   2.159 -0.5565  0.5426  0.0999
  312WAT     H1 1147   3.657   4.004   2.099 -1.3556  0.5648 -0.4109
  312WAT     H2 1148   3.621   3.857   2.113  2.9478 -0.4379  1.7947
  313WAT      O 1149   4.351   4.610   3.222 -0.0473 -0.2799  0.1007
  313WAT     H1 1150   4.421   4.665   3.186 -0.1595 -1.2628 -1.7163
  313WAT     H2 1151   4.271   4.658   3.203 -0.0299 -0.2188  0.1771
  314WAT      O 1152   1.939   1.967   4.330  0.1504 -0.1453 -0.3835
  314WAT     H1 1153   1.935   1.888   4.277  0.6092 -0.0312 -0.5972
  314WAT     H2 1154   1.902   1.942   4.414 -1.2980 -0.1278 -0.9899
  315WAT      O 1155   4.139   4.198   0.952  0.0234  0.0598 -0.1020
  315WAT     H1 1156   4.150   4.200   1.047 -1.9207  1.1038  0.1493
  315WAT     H2 1157   4.191   4.122   0.924  1.7272  0.5007  1.5949
  316WAT      O 1158   2.732   0.085   1.959 -0.4211 -0.1069  0.1466
  316WAT     H1 1159   2.701   0.052   2.043 -0.7752 -0.1750 -0.0089
  316WAT     H2 1160   2.666   0.056   1.896 -0.5395  0.5576 -0.0483
  317WAT      O 1161   2.776   0.353   0.767  0.1130 -0.1465  0.1656
  317WAT     H1 1162   2.839   0.321   0.831  0.8652 -0.0407 -0.5027
  317WAT     H2 1163   2.777   0.288   0.697 -2.1657 -1.3049  1.1054
  318WAT      O 1164   3.520   1.590   5.566 -0.2277 -0.2755 -0.5922
  318WAT     H1 1165   3.607   1.597   5.606 -0.8441 -0.5848  0.8822
  318WAT     H2 1166   3.460   1.613   5.637 -1.3328  0.6471 -1.7848
  319WAT      O 1167   4.507   1.988   5.321 -0.1103 -0.1570 -0.2679
  319WAT     H1 1168   4.533   2.058   5.380 -2.7635  1.3571 -0.7211
  319WAT     H2 1169   4.482   1.916   5.380  1.0677 -0.1403  0.2686
  320WAT      O 1170   4.621   2.928   1.968 -0.3616 -0.1450  0.2788
  320WAT     H1 1171   4.604   2.981   2.046  2.0866  1.2384 -0.0302
  320WAT     H2 1172   4.600   2.986   1.895  1.7845  0.2899 -0.0590
  321WAT      O 1173   4.148   4.520   5.620  0.5059 -0.0684 -0.0362
  321WAT     H1 1174   4.200   4.530   5.700 -1.3801 -0.7100  1.3601
  321WAT     H2 1175   4.061   4.552   5.644  0.1702  0.8185 -2.2185
  322WAT      O 1176   2.325   0.974   1.865  0.2100  0.2055 -0.1178
  322WAT     H1 1177   2.404   1.022   1.888  0.2360  0.5446 -0.8710
  322WAT     H2 1178   2.314   0.910   1.934  1.6593 -0.4560 -0.4707
  323WAT      O 1179   1.350   3.064   0.981  0.7913  0.0089  0.6263
  323WAT     H1 1180   1.416   3.130   0.959  0.1974  0.4937  0.2659
  323WAT     H2 1181   1.310   3.042   0.897  0.6625 -0.4632  0.8123
  324WAT      O 1182   2.065   4.577   1.167 -0.4909 -0.6880 -0.0314
  324WAT     H1 1183   1.970   4.576   1.168 -0.5553  1.4809  0.0989
  324WAT     H2 1184   2.088   4.555   1.076 -1.2389  1.3016 -0.7544
  325WAT      O 1185   1.590   0.765   5.704  0.4780  0.0474 -0.0542
  325WAT     H1 1186   1.524   0.711   5.747  0.5005 -0.8992 -1.1524
  325WAT     H2 1187   1.630   0.707   5.639  1.9066  0.8105  0.1116
  326WAT      O 1188   3.282   3.746   5.715  0.4988 -0.5918 -0.0954
  326WAT     H1 1189   3.280   3.652   5.732  0.2259 -0.5358  0.1875
  326WAT     H2 1190   3.319   3.784   5.795  0.4356 -0.4406 -0.1378
  327WAT      O 1191   4.155   4.616   2.794 -0.0104 -0.7948 -0.2392
  327WAT     H1 1192   4.111   4.630   2.710  0.5792  0.2367 -0.4045
  327WAT     H2 1193   4.227   4.557   2.773  0.9245  0.4671 -0.7690
  328WAT      O 1194   2.874   5.036   5.378  0.5170  0.5093 -0.1225
  328WAT     H1 1195   2.968   5.043   5.361  0.5335 -0.0983 -0.3213
  328WAT     H2 1196   2.867   5.001   5.466  0.4645  1.2541  0.1721
  329WAT      O 1197   2.614   5.175   4.771  0.4358 -0.0519  0.2431
  329WAT     H1 1198   2.644   5.099   4.722  0.0539  0.3416 -0.6302
  329WAT     H2 1199   2.580   5.139   4.854 -2.5866 -1.2716 -1.3517
  330WAT      O 1200   4.083   4.061   5.764 -0.3902  0.0655 -0.2794
  330WAT     H1 1201   4.130   4.064   5.847  2.7205  2.9736 -1.9039
  330WAT     H2 1202   4.014   4.127   5.773 -0.1427  0.2881 -0.0003
  331WAT      O 1203   4.565   2.921   5.254 -0.2049  0.0583  0.3367
  331WAT     H1 1204   4.547   2.983   5.325 -1.2105 -0.5768  0.6582
  331WAT     H2 1205   4.522   2.961   5.177  0.2529  0.3827  0.2443
  332WAT      O 1206   4.953   3.654   5.201  0.1086 -0.1963  0.2245
  332WAT     H1 1207   4.988   3.716   5.138  1.3664  0.1393  1.2209
  332WAT     H2 1208   4.858   3.663   5.193  0.2454  0.3361 -1.1009
  333WAT      O 1209   3.890   4.626   3.581  0.5326  0.1643  0.0854
  333WAT     H1 1210   3.915   4.639   3.490 -0.0666 -0.6612 -0.2083
  333WAT     H2 1211   3.935   4.696   3.628  1.7061 -0.0371 -0.6905
  334WAT      O 1212   1.933   3.967   0.105  0.1726  0.3188 -0.0755
  334WAT     H1 1213   2.016   4.013   0.119 -0.4327  1.1475  1.0547
  334WAT     H2 1214   1.897   3.958   0.193 -1.1634  0.4086 -0.6003
  335WAT      O 1215   2.118   2.692   5.435 -0.0550  0.0485  0.1959
  335WAT     H1 1216   2.090   2.691   5.344 -0.2196 -0.5503  0.2501
  335WAT     H2 1217   2.041   2.665   5.484 -0.5905  2.3506  0.7061
  336WAT      O 1218   1.895   4.154   1.602  0.8081 -0.0928 -0.1171
  336WAT     H1 1219   1.845   4.109   1.671  0.4896 -0.5702 -0.6481
  336WAT     H2 1220   1.929   4.233   1.645  0.5297 -0.3289  0.5580
  337WAT      O 1221   4.076   3.277   1.665  0.1188  0.3598 -0.2533
  337WAT     H1 1222   4.031   3.358   1.689  0.4332  0.4443  0.0581
  337WAT     H2 1223   4.085   3.230   1.748  0.1376  0.1055 -0.3988
  338WAT      O 1224   3.135   0.344   3.012 -0.0501 -0.1398 -0.2080
  338WAT     H1 1225   3.189   0.299   3.076 -0.5773  0.6956  0.8548
  338WAT     H2 1226   3.062   0.285   2.995 -1.4876  0.7996  2.2340
  339WAT      O 1227   3.819   4.883   0.391 -0.2569  0.3095  0.0275
  339WAT     H1 1228   3.779   4.882   0.304 -0.7566  2.1897  0.1795
  339WAT     H2 1229   3.879   4.809   0.391  0.2309  0.6393 -2.1557
  340WAT      O 1230   1.364   3.292   4.672 -0.4185 -0.3890  0.4259
  340WAT     H1 1231   1.440   3.253   4.715  0.0220  0.4960  0.4584
  340WAT     H2 1232   1.392   3.306   4.581 -0.6443 -0.3292  0.3632
  341WAT      O 1233   3.014   5.381   1.724  0.2219 -0.3698 -0.5689
  341WAT     H1 1234   2.961   5.307   1.754 -0.1903  0.1298 -0.0362
  341WAT     H2 1235   2.988   5.454   1.781 -0.5543  0.6108 -2.1188
  342WAT      O 1236   3.298   5.626   2.575  0.0939 -0.4913 -0.2316
  342WAT     H1 1237   3.349   5.598   2.499  1.1361 -0.2914  0.3733
  342WAT     H2 1238   3.351   5.696   2.615 -0.1881 -0.9207  0.9395
  343WAT      O 1239   3.118   0.316   1.676  0.4141 -0.3989 -0.0471
  343WAT     H1 1240   3.111   0.254   1.603  2.0541 -1.1313  0.3634
  343WAT     H2 1241   3.096   0.264   1.754 -0.7000  0.2177  0.0841
  344WAT      O 1242   0.812   2.572   3.491  0.2311  0.2859  0.0836
  344WAT     H1 1243   0.851   2.551   3.407  0.5966  0.8325  0.1075
  344WAT     H2 1244   0.755   2.498   3.511 -0.2879  0.3998 -0.8980
  345WAT      O 1245   1.726   3.468   0.644 -0.4046 -0.0536 -0.0411
  345WAT     H1 1246   1.775   3.453   0.725 -2.7636 -0.8745  1.3406
  345WAT     H2 1247   1.743   3.391   0.590  0.1403 -0.1140  0.2104
  346WAT      O 1248   2.501   2.481   0.561  0.1934 -0.1541 -0.2740
  346WAT     H1 1249   2.453   2.464   0.480 -1.8208  0.5535  0.6828
  346WAT     H2 1250   2.544   2.565   0.547 -1.1964  0.5964 -0.2102
  347WAT      O 1251   3.872   5.246   5.315 -0.0685  0.2792 -0.0189
  347WAT     H1 1252   3.915   5.176   5.266 -1.4727 -0.0771 -0.7934
  347WAT     H2 1253   3.944   5.293   5.359  0.9969 -0.8562 -0.5099
  348WAT      O 1254   2.099   1.963   5.419 -0.0400 -0.1049  0.3514
  348WAT     H1 1255   2.182   1.923   5.391  0.2785  0.3110  0.6974
  348WAT     H2 1256   2.039   1.888   5.428  0.2792 -0.4033  0.0548
  349WAT      O 1257   3.473   4.842   1.936  0.1267  0.2010 -0.1664
  349WAT     H1 1258   3.417   4.772   1.904 -0.6015  0.8078 -0.2411
  349WAT     H2 1259   3.520   4.873   1.858  0.1854  0.0339 -0.1966
  350WAT      O 1260   0.612   4.053   3.543  0.6684  0.2767 -0.4971
  350WAT     H1 1261   0.591   3.960   3.545  0.2666  0.3693  1.3666
  350WAT     H2 1262   0.531   4.096   3.570  1.2339  1.0803 -0.0386
  351WAT      O 1263   2.553   5.078   1.597 -0.0529  0.2102  0.0455
  351WAT     H1 1264   2.558   5.122   1.512  0.6387 -0.8274 -0.4665
  351WAT     H2 1265   2.464   5.043   1.600  0.3374 -0.8981 -0.8463
  352WAT      O 1266   3.532   3.814   3.384  0.3433  0.0146 -0.0776
  352WAT     H1 1267   3.459   3.846   3.437 -0.4930 -1.3853 -0.3551
  352WAT     H2 1268   3.598   3.788   3.448 -0.2419 -0.6772  0.2579
  353WAT      O 1269   3.085   4.996   4.802 -0.0638  0.2158 -0.8422
  353WAT     H1 1270   3.018   5.041   4.853  0.6964 -0.5203  0.8586
  353WAT     H2 1271   3.166   5.043   4.821  0.4357 -0.7923 -0.4256
  354WAT      O 1272   0.221   2.655   1.254 -0.0400  0.4964 -0.9325
  354WAT     H1 1273   0.161   2.713   1.208 -0.0219  2.0801  0.9020
  354WAT     H2 1274   0.185   2.648   1.342  0.4284 -1.6638 -0.8410
  355WAT      O 1275   2.117   5.178   1.309  0.5401 -0.3921  0.3586
  355WAT     H1 1276   2.185   5.113   1.292 -0.5189 -1.0946 -1.4237
  355WAT     H2 1277   2.034   5.130   1.301 -0.2350  0.6995  1.2739
  356WAT      O 1278   4.276   4.541   4.654 -0.3500 -0.7158 -0.4192
  356WAT     H1 1279   4.360   4.583   4.634 -0.2215  0.8858  2.9123
  356WAT     H2 1280   4.219   4.565   4.581  0.9320  1.7817 -0.6775
  357WAT      O 1281   4.327   4.858   5.316 -0.0592  0.1555 -0.1206
  357WAT     H1 1282   4.305   4.914   5.391  1.5985  1.6879 -0.7209
  357WAT     H2 1283   4.413   4.821   5.338 -0.2963 -0.6922 -0.5661
  358WAT      O 1284   0.838   2.550   5.027  0.1752 -0.5446 -0.2122
  358WAT     H1 1285   0.804   2.613   4.963  0.0499 -0.1830  0.2022
  358WAT     H2 1286   0.759   2.506   5.061 -0.3240  2.3229  2.9024
  359WAT      O 1287   1.804   2.827   1.348 -0.0893 -0.0971  0.4213
  359WAT     H1 1288   1.743   2.884   1.396 -0.4270 -1.2334  1.3709
  359WAT     H2 1289   1.749   2.755   1.317  0.7521 -1.1007  1.2213
  360WAT      O 1290   2.357   2.468   0.846 -0.6255 -0.4880  1.0057
  360WAT     H1 1291   2.372   2.502   0.757 -0.1169  0.2306  1.3528
  360WAT     H2 1292   2.422   2.398   0.855 -1.2997 -1.1963  0.4875
  361WAT      O 1293   1.302   4.153   1.274 -0.0093 -0.5077 -0.3775
  361WAT     H1 1294   1.379   4.205   1.295 -0.6332  0.1578  0.3512
  361WAT     H2 1295   1.336   4.068   1.247  0.9462 -0.6704  1.2244
  362WAT      O 1296   2.165   5.433   4.875 -0.0504  0.1418 -0.1197
  362WAT     H1 1297   2.112   5.358   4.849  2.4425 -1.2207 -1.5905
  362WAT     H2 1298   2.133   5.505   4.820 -0.3121 -0.6708 -1.0458
  363WAT      O 1299   2.158   1.224   4.899  0.2304  0.6672  0.1144
  363WAT     H1 1300   2.212   1.240   4.820  0.6265  2.0467  0.6238
  363WAT     H2 1301   2.072   1.257   4.875 -0.4972 -1.6826 -0.7550
  364WAT      O 1302   0.363   3.960   0.946  0.3761 -0.1854 -0.0611
  364WAT     H1 1303   0.404   4.005   1.020  1.1807 -0.8143 -0.1112
  364WAT     H2 1304   0.310   3.891   0.987  2.6139 -2.0340 -0.0847
  365WAT      O 1305   0.638   3.671   0.766 -0.5859 -0.3418  0.3702
  365WAT     H1 1306   0.678   3.754   0.740  2.8298 -1.9877 -0.2254
  365WAT     H2 1307   0.598   3.638   0.685  0.1766 -0.3218 -0.0306
  366WAT      O 1308   2.868   3.949   4.185  0.3586  0.0498  0.3183
  366WAT     H1 1309   2.826   4.031   4.163 -0.5248 -0.9676 -2.1239
  366WAT     H2 1310   2.948   3.947   4.131  0.0354 -0.9508 -0.1465
  367WAT      O 1311   3.259   1.966   1.360  0.3042  0.0155  0.5748
  367WAT     H1 1312   3.225   1.991   1.446 -0.5763 -2.6162  1.0901
  367WAT     H2 1313   3.183   1.973   1.302 -0.2144 -2.0626  0.9131
  368WAT      O 1314   3.693   5.642   0.760 -0.1731  0.1132 -0.0711
  368WAT     H1 1315   3.614   5.588   0.752  1.0474 -1.8197  0.1867
  368WAT     H2 1316   3.698   5.663   0.854  0.5670 -1.3430  0.2403
  369WAT      O 1317   3.572   5.554   3.879 -0.4745  0.6678  0.3560
  369WAT     H1 1318   3.510   5.585   3.813 -0.6302 -0.3975 -0.0105
  369WAT     H2 1319   3.560   5.459   3.881  2.0237  0.2684 -0.6474
  370WAT      O 1320   3.334   4.278   0.738 -0.1256  0.2615 -0.4085
  370WAT     H1 1321   3.408   4.285   0.678  0.9074 -1.0858  0.6496
  370WAT     H2 1322   3.283   4.204   0.705  0.0136  0.0233 -0.0988
  371WAT      O 1323   4.366   4.381   1.943  0.3747  0.4740  0.4052
  371WAT     H1 1324   4.329   4.389   2.030  0.2703  2.3429  0.2201
  371WAT     H2 1325   4.453   4.342   1.957 -0.0363 -0.1611  1.2226
  372WAT      O 1326   3.931   1.909   2.540 -0.1423  0.4557 -0.3686
  372WAT     H1 1327   3.930   1.915   2.636  1.7815  1.2603 -0.3367
  372WAT     H2 1328   3.840   1.894   2.516 -0.5258 -0.9606  1.6447
  373WAT      O 1329   4.645   3.654   3.373  0.3006  0.5999 -0.0079
  373WAT     H1 1330   4.584   3.720   3.404  1.0494  1.9196 -1.2544
  373WAT     H2 1331   4.730   3.683   3.405  0.5977  0.0456 -0.2749
  374WAT      O 1332   1.031   2.203   2.961  0.2840 -0.0409  0.1548
  374WAT     H1 1333   0.993   2.271   2.904  0.9753 -0.8781 -1.3555
  374WAT     H2 1334   0.955   2.163   3.003 -0.1851  1.1412  0.4748
  375WAT      O 1335   0.922   2.358   1.804 -0.1323 -0.4983  0.0519
  375WAT     H1 1336   0.904   2.362   1.898  0.8876  0.9770  0.2026
  375WAT     H2 1337   0.964   2.273   1.792 -0.3877 -0.7614  0.8983
  376WAT      O 1338   3.705   4.031   2.419  0.0056 -0.3445 -0.2507
  376WAT     H1 1339   3.673   4.120   2.438 -0.5970 -0.4770 -0.6388
  376WAT     H2 1340   3.647   3.999   2.351  1.2063 -0.4578 -1.2432
  377WAT      O 1341   0.472   3.098   1.670 -0.9911 -0.2033  0.1067
  377WAT     H1 1342   0.450   3.134   1.584  0.1112  1.4632  0.4852
  377WAT     H2 1343   0.395   3.118   1.724 -1.1306 -0.0460 -0.1490
  378WAT      O 1344   4.837   3.399   4.782 -0.2600  0.4232 -0.4644
  378WAT     H1 1345   4.887   3.435   4.856  0.4677 -0.4840 -0.4960
  378WAT     H2 1346   4.903   3.383   4.714 -0.0941 -3.0064  0.3148
  379WAT      O 1347   2.940   0.981   4.621 -0.1871  0.0157 -0.0083
  379WAT     H1 1348   3.011   0.917   4.633  0.0884  0.2923 -0.1652
  379WAT     H2 1349   2.954   1.045   4.690 -0.2729  0.0833 -0.0541
  380WAT      O 1350   3.185   4.626   0.409 -0.3342  0.0553  0.5794
  380WAT     H1 1351   3.233   4.669   0.480  2.0155 -1.1526 -0.1945
  380WAT     H2 1352   3.121   4.571   0.454 -0.6365  1.2478  1.6653
  381WAT      O 1353   4.340   1.919   0.995  0.0746 -0.1042 -0.3220
  381WAT     H1 1354   4.316   1.983   1.061  1.0766 -0.1422  0.0921
  381WAT     H2 1355   4.257   1.896   0.952 -0.4595  0.5335  0.3552
  382WAT      O 1356   4.755   4.115   5.587  0.5543  0.1172  0.0682
  382WAT     H1 1357   4.674   4.091   5.632  1.1119 -0.7468  0.6462
  382WAT     H2 1358   4.785   4.033   5.547  0.1602  0.8297 -1.7784
  383WAT      O 1359   4.559   4.510   5.683 -0.1707 -0.2031  0.2710
  383WAT     H1 1360   4.588   4.459   5.758  2.4784  0.1506 -0.3901
  383WAT     H2 1361   4.623   4.582   5.676 -0.5071 -0.0332 -2.0796
  384WAT      O 1362   0.703   2.920   0.549 -0.5743 -0.4772  0.1385
  384WAT     H1 1363   0.785   2.894   0.592 -0.3198  0.2289  0.1030
  384WAT     H2 1364   0.724   2.918   0.455 -0.0196  1.4600  0.1788
  385WAT      O 1365   3.103   5.474   0.211  0.1586 -0.2424 -0.0663
  385WAT     H1 1366   3.079   5.439   0.297 -0.7693  0.6333  0.0511
  385WAT     H2 1367   3.040   5.435   0.150 -0.4113  0.6062 -0.0445
  386WAT      O 1368   4.357   3.563   0.979  0.2994  0.1568 -0.1619
  386WAT     H1 1369   4.391   3.652   0.988 -0.3514  0.3653  0.3065
  386WAT     H2 1370   4.270   3.566   1.019  0.9905 -1.1300  1.5556
  387WAT      O 1371   2.441   1.652   4.678  0.2900  0.1607 -0.3450
  387WAT     H1 1372   2.427   1.630   4.770 -1.1445  1.5013 -0.1991
  387WAT     H2 1373   2.522   1.703   4.676  0.5116 -0.1708  0.1158
  388WAT      O 1374   3.668   0.384   5.517  0.0056  0.3846  0.1880
  388WAT     H1 1375   3.750   0.360   5.560 -0.3616  0.0678  0.7333
  388WAT     H2 1376   3.609   0.407   5.589 -0.8222 -0.7844 -0.0886
  389WAT      O 1377   3.606   3.963   5.456 -0.0220  0.0949 -0.7848
  389WAT     H1 1378   3.584   3.965   5.363 -1.0781  1.5053 -0.5320
  389WAT     H2 1379   3.525   3.936   5.499 -0.2004  1.5877 -0.1292
  390WAT      O 1380   3.348   3.990   4.126 -0.2131  0.3531  0.0190
  390WAT     H1 1381   3.286   3.930   4.167 -0.0489  0.5487  0.5570
  390WAT     H2 1382   3.301   4.072   4.117 -1.2047 -0.3892 -2.7274
  391WAT      O 1383   0.167   2.715   2.382 -0.2155 -0.1450 -0.2835
  391WAT     H1 1384   0.231   2.726   2.312 -0.9409  2.7782 -0.6148
  391WAT     H2 1385   0.106   2.649   2.350 -0.3294  0.8699 -2.2881
  392WAT      O 1386   1.574   4.497   3.353 -0.2188 -0.0549 -0.5032
  392WAT     H1 1387   1.492   4.454   3.328  1.7985 -2.2285 -4.3442
  392WAT     H2 1388   1.619   4.432   3.407 -0.5417  0.7277  0.7444
  393WAT      O 1389   4.430   4.111   1.169 -0.2802 -0.5281 -0.1990
  393WAT     H1 1390   4.342   4.146   1.185 -0.2389 -0.3182 -0.4206
  393WAT     H2 1391   4.457   4.075   1.253 -0.1357  0.3886  0.1567
  394WAT      O 1392   3.639   0.830   4.150 -0.4256 -0.3050  0.4097
  394WAT     H1 1393   3.574   0.808   4.216 -3.6546  2.1325 -1.6377
  394WAT     H2 1394   3.631   0.761   4.084  0.3235 -0.8860  0.9077
  395WAT      O 1395   4.478   4.056   5.660  0.1027 -0.5610  0.4400
  395WAT     H1 1396   4.494   3.963   5.641  1.6141 -0.3526  0.5749
  395WAT     H2 1397   4.453   4.094   5.576  1.3475 -0.7355 -0.0311
  396WAT      O 1398   1.657   2.713   3.479  0.0970  0.2972  0.5450
  396WAT     H1 1399   1.620   2.795   3.445 -0.7709  0.3187  1.4895
  396WAT     H2 1400   1.660   2.655   3.403 -0.1363  0.9179  0.0528
  397WAT      O 1401   2.157   4.110   0.159  0.0892  0.2201 -0.7633
  397WAT     H1 1402   2.127   4.172   0.226  1.6141  0.3765 -0.1734
  397WAT     H2 1403   2.237   4.149   0.125  2.3489 -2.3630  1.1593
  398WAT      O 1404   3.358   0.554   5.028  0.0679 -0.5083  0.3094
  398WAT     H1 1405   3.378   0.646   5.048  3.2068 -0.8874 -0.5647
  398WAT     H2 1406   3.425   0.505   5.074  1.9042 -1.9635 -3.4903
  399WAT      O 1407   0.029   4.110   1.792  0.5845  0.5106  0.1266
  399WAT     H1 1408   0.031   4.078   1.882  0.2016  0.0502 -0.0224
  399WAT     H2 1409   0.116   4.090   1.757  0.5575  0.2011  0.2323
  400WAT      O 1410   3.753   4.577   1.215  0.5475 -0.3216  0.5272
  400WAT     H1 1411   3.796   4.573   1.129  0.2060  0.8337  0.2815
  400WAT     H2 1412   3.695   4.500   1.216  2.1985 -1.6162  0.6627
  401WAT      O 1413   3.063   3.620   1.219  0.9193 -0.1892  0.4811
  401WAT     H1 1414   3.002   3.693   1.232  0.2946 -0.5787 -0.1933
  401WAT     H2 1415   3.149   3.662   1.212  0.5118  0.5398 -0.3884
  402WAT      O 1416   2.244   5.297   0.238 -0.2494  0.2273 -0.0904
  402WAT     H1 1417   2.267   5.265   0.151  0.9634  0.3366  0.1760
  402WAT     H2 1418   2.183   5.369   0.221 -2.1501 -1.4199 -0.7304
  403WAT      O 1419   4.203   1.292   0.952  0.5409 -0.0903  0.1263
  403WAT     H1 1420   4.196   1.269   1.045  1.6436 -2.8163 -0.3691
  403WAT     H2 1421   4.294   1.271   0.930  0.7628  2.0477 -1.2475
  404WAT      O 1422   2.944   3.518   5.652  0.1869  0.0062  0.1029
  404WAT     H1 1423   3.030   3.520   5.609  0.4268 -0.4273  0.5509
  404WAT     H2 1424   2.920   3.425   5.654 -0.0270  0.0677  0.5015
  405WAT      O 1425   0.122   2.119   5.381 -0.2205 -0.1664  0.0318
  405WAT     H1 1426   0.036   2.161   5.388  0.2197  0.6317  0.8606
  405WAT     H2 1427   0.178   2.170   5.440  1.1541  0.2058 -1.5241
  406WAT      O 1428   2.790   1.340   3.906  0.3330  0.3465 -0.3761
  406WAT     H1 1429   2.816   1.422   3.948  0.4444  1.3465 -2.2534
  406WAT     H2 1430   2.700   1.325   3.935 -0.7453  2.7257 -2.1626
  407WAT      O 1431   1.176   1.921   1.183 -0.3135  0.1958  0.2490
  407WAT     H1 1432   1.104   1.984   1.178  1.4814  2.3884  0.3022
  407WAT     H2 1433   1.236   1.958   1.248  1.5777 -0.7275 -0.8771
  408WAT      O 1434   1.614   3.942   0.191 -0.3312  0.6456  0.2386
  408WAT     H1 1435   1.563   3.863   0.171  0.3078  0.3190 -0.1259
  408WAT     H2 1436   1.682   3.912   0.251  1.2803  0.4404 -1.6092
  409WAT      O 1437   3.128   2.821   0.626 -0.7675 -0.4871  0.9075
  409WAT     H1 1438   3.061   2.831   0.558 -0.7840  0.2042  1.0202
  409WAT     H2 1439   3.085   2.771   0.695 -0.7106 -1.3177  0.3643
  410WAT      O 1440   3.164   0.665   2.627  0.2986 -0.2142  0.3557
  410WAT     H1 1441   3.174   0.593   2.565  0.9529  0.8097 -0.7647
  410WAT     H2 1442   3.203   0.632   2.708  1.2843 -0.8634 -0.3506
  411WAT      O 1443   3.516   2.341   2.509  0.0470  0.2046 -0.0755
  411WAT     H1 1444   3.527   2.261   2.562  1.3131  0.2943 -0.1857
  411WAT     H2 1445   3.421   2.349   2.499 -0.1001 -2.6362 -2.1030
  412WAT      O 1446   4.921   2.310   0.781  0.6852 -0.6395 -0.1514
  412WAT     H1 1447   4.970   2.228   0.769  0.1526 -1.1146  0.8374
  412WAT     H2 1448   4.878   2.301   0.866  0.3273  0.5269 -0.1865
  413WAT      O 1449   3.760   2.470   4.672  0.3838  0.3297 -0.0826
  413WAT     H1 1450   3.812   2.392   4.657  0.7476  0.4914  0.3254
  413WAT     H2 1451   3.788   2.502   4.758 -0.2101  0.5549  0.0312
  414WAT      O 1452   3.704   2.050   3.353 -0.1857  0.0853  0.1846
  414WAT     H1 1453   3.766   2.122   3.346 -0.7077  0.4403 -1.2828
  414WAT     H2 1454   3.695   2.018   3.263 -1.6977 -0.2970  0.4422
  415WAT      O 1455   4.154   3.179   1.426 -0.3031  0.5094 -0.7253
  415WAT     H1 1456   4.125   3.220   1.507  1.5039 -0.1505  0.2908
  415WAT     H2 1457   4.075   3.137   1.391 -1.0711  0.6249  0.7944
  416WAT      O 1458   4.706   3.373   2.132  0.5879 -0.4018  0.5144
  416WAT     H1 1459   4.742   3.416   2.209  1.1484 -0.5741  0.3562
  416WAT     H2 1460   4.689   3.283   2.160 -2.5051  0.3653  1.4473
  417WAT      O 1461   3.318   3.929   5.501  0.2208 -0.7679 -0.6558
  417WAT     H1 1462   3.319   3.867   5.573  0.0262 -0.6843 -0.5797
  417WAT     H2 1463   3.232   3.917   5.461 -0.9660  1.3613  1.0322
  418WAT      O 1464   3.593   1.771   3.164 -0.3407 -0.0525 -0.1700
  418WAT     H1 1465   3.504   1.795   3.191 -0.4532 -0.8579  0.2083
  418WAT     H2 1466   3.616   1.835   3.096 -0.3285  1.5634  1.3051
  419WAT      O 1467   2.663   4.838   2.889 -0.3268 -0.5864 -0.0985
  419WAT     H1 1468   2.710   4.871   2.813  0.0699  0.4278  0.5653
  419WAT     H2 1469   2.702   4.884   2.963 -1.9756 -0.1273  0.5311
  420WAT      O 1470   1.325   3.755   4.182  0.0783 -0.2573  0.1555
  420WAT     H1 1471   1.354   3.802   4.260 -0.4423 -0.7711  0.6681
  420WAT     H2 1472   1.245   3.710   4.209  0.8567 -1.8841 -0.1598
  421WAT      O 1473   0.897   1.654   4.973 -0.6766 -0.1239 -0.2398
  421WAT     H1 1474   0.937   1.697   4.897 -0.3408 -0.2730 -0.1484
  421WAT     H2 1475   0.958   1.584   4.996 -0.1783  0.6340  0.8850
  422WAT      O 1476   4.313   1.205   5.474 -0.3921  0.1045  0.3928
  422WAT     H1 1477   4.271   1.230   5.391 -1.4927  0.8467  1.1489
  422WAT     H2 1478   4.313   1.110   5.473 -0.5948  0.1060 -0.3568
  423WAT      O 1479   0.940   1.595   0.650 -0.0371  0.1024 -0.1202
  423WAT     H1 1480   0.891   1.660   0.701 -0.8894  0.5446 -1.4496
  423WAT     H2 1481   0.970   1.532   0.715 -0.4533  1.0319  1.0220
  424WAT      O 1482   2.624   4.094   4.545 -0.1243  0.1476 -0.1410
  424WAT     H1 1483   2.687   4.092   4.617 -0.2118  1.5090  0.0003
  424WAT     H2 1484   2.544   4.129   4.585 -0.2162  0.7870 -0.8622
  425WAT      O 1485   2.797   4.547   2.749 -0.0769 -0.1188  0.4968
  425WAT     H1 1486   2.775   4.525   2.658 -0.6373 -0.8803  0.8051
  425WAT     H2 1487   2.714   4.535   2.796  0.6270 -1.5708  1.4309
  426WAT      O 1488   0.311   3.423   0.691 -0.0961  0.0659 -0.4464
  426WAT     H1 1489   0.240   3.401   0.751  1.0717 -0.8984  0.6453
  426WAT     H2 1490   0.275   3.492   0.635 -2.4123 -1.4757 -1.0030
  427WAT      O 1491   1.054   1.727   4.505  0.6242  0.2597 -0.0662
  427WAT     H1 1492   1.058   1.820   4.483  0.1559  0.4603  0.6790
  427WAT     H2 1493   0.964   1.701   4.485  0.9292 -0.1997 -0.8960
  428WAT      O 1494   3.767   5.458   2.860 -0.1965 -0.3528  0.0639
  428WAT     H1 1495   3.843   5.412   2.824  0.2250  1.3472 -1.3661
  428WAT     H2 1496   3.692   5.408   2.827  0.2260 -1.9173  1.3049
  429WAT      O 1497   2.719   2.521   4.479 -0.3963  0.3002  0.0228
  429WAT     H1 1498   2.800   2.470   4.486 -0.6594  0.0322  1.5477
  429WAT     H2 1499   2.748   2.607   4.448  0.4303  0.0979  0.1888
  430WAT      O 1500   0.518   3.272   2.116 -0.7259 -0.1409 -0.0001
  430WAT     H1 1501   0.574   3.336   2.074  0.0595  0.1818  1.4611
  430WAT     H2 1502   0.557   3.187   2.095  0.2267  0.0723  0.8486
  431WAT      O 1503   4.889   4.209   2.303  0.1062 -0.1060  0.0998
  431WAT     H1 1504   4.969   4.164   2.275  0.4503 -0.8555  2.1221
  431WAT     H2 1505   4.819   4.162   2.257  0.6034 -1.5763  0.7590
  432WAT      O 1506   0.191   1.491   3.002 -0.1169  0.4235  0.0532
  432WAT     H1 1507   0.146   1.532   2.928  1.0682  2.2190  0.2645
  432WAT     H2 1508   0.247   1.425   2.962  0.9821  1.7948 -0.7792
  433WAT      O 1509   3.199   2.739   4.454  0.0489  0.0763  0.0954
  433WAT     H1 1510   3.239   2.725   4.368 -1.8476  2.0565 -1.2063
  433WAT     H2 1511   3.255   2.804   4.496  0.4905 -0.2385  0.0006
  434WAT      O 1512   3.577   4.061   3.261 -0.3105  0.0882 -0.2996
  434WAT     H1 1513   3.571   4.046   3.166  1.0053 -0.7431 -0.2826
  434WAT     H2 1514   3.598   3.975   3.297  3.4585  1.0604  0.2754
  435WAT      O 1515   3.923   1.652   1.582 -0.0494 -0.0307 -0.5120
  435WAT     H1 1516   3.964   1.587   1.525 -0.5503 -0.4389 -0.4129
  435WAT     H2 1517   3.982   1.727   1.579  0.5699 -0.5091 -0.5808
  436WAT      O 1518   4.546   1.252   2.415  0.0329 -0.4732  0.5272
  436WAT     H1 1519   4.487   1.273   2.342  0.2306  0.2161  0.5516
  436WAT     H2 1520   4.489   1.241   2.490 -0.0628  0.4234  0.5995
  437WAT      O 1521   1.232   2.833   5.277  0.2585 -0.0080  0.0594
  437WAT     H1 1522   1.264   2.814   5.365  0.4579 -1.4634 -0.3035
  437WAT     H2 1523   1.145   2.793   5.274  1.1230 -1.9052 -1.0753
  438WAT      O 1524   2.891   4.281   5.026  0.3269  1.1485  0.0271
  438WAT     H1 1525   2.797   4.299   5.019  0.1605  0.3498  0.0643
  438WAT     H2 1526   2.911   4.227   4.950  0.3990 -0.0638  0.8794
  439WAT      O 1527   3.552   5.041   0.071 -0.1753  0.8450  0.2962
  439WAT     H1 1528   3.463   5.067   0.049 -0.6770 -1.6510 -1.0119
  439WAT     H2 1529   3.571   5.086   0.153 -2.2712  2.1791  0.1026
  440WAT      O 1530   4.571   2.188   5.768 -0.5410 -0.0517 -0.1467
  440WAT     H1 1531   4.596   2.096   5.772 -1.3176 -0.3233 -1.1314
  440WAT     H2 1532   4.512   2.199   5.842  1.3040  0.2559  1.3572
  441WAT      O 1533   3.942   1.032   1.828 -0.1691 -0.3406 -0.2128
  441WAT     H1 1534   3.850   1.059   1.819 -0.3831 -0.6032  1.0694
  441WAT     H2 1535   3.977   1.087   1.897  0.4156 -0.8027 -0.1297
  442WAT      O 1536   0.536   3.159   4.470  0.4105 -0.3092 -0.1852
  442WAT     H1 1537   0.570   3.114   4.547 -0.0712  0.6209  0.5886
  442WAT     H2 1538   0.479   3.095   4.428 -1.8934  0.1313  2.0017
  443WAT      O 1539   4.602   1.607   5.363  0.2808  0.5548 -0.0822
  443WAT     H1 1540   4.620   1.556   5.441  0.6584  0.0755 -0.4761
  443WAT     H2 1541   4.683   1.601   5.311 -0.8733 -1.3967 -1.7722
  444WAT      O 1542   4.544   2.281   5.483 -0.2341 -0.0212  0.0373
  444WAT     H1 1543   4.558   2.372   5.454 -0.5337 -0.0133 -0.0800
  444WAT     H2 1544   4.571   2.281   5.575 -3.1081  0.9254  0.9973
  445WAT      O 1545   1.846   5.281   0.204  0.0282  0.2890 -0.0464
  445WAT     H1 1546   1.831   5.189   0.229  0.5573  0.4938  1.0841
  445WAT     H2 1547   1.761   5.323   0.219  0.5464  0.6149  2.4979
  446WAT      O 1548   1.948   2.475   5.577 -0.3583 -0.4208 -0.1099
  446WAT     H1 1549   1.959   2.396   5.524  0.6609 -0.9284  0.8029
  446WAT     H2 1550   1.974   2.448   5.665  0.8984  1.1438  0.0499
  447WAT      O 1551   3.278   2.923   3.126 -0.2194 -0.3527 -0.0298
  447WAT     H1 1552   3.220   2.995   3.104  0.1025  0.5989  2.0227
  447WAT     H2 1553   3.351   2.931   3.064 -1.8512 -1.1331 -2.1539
  448WAT      O 1554   3.138   1.865   4.801  0.3331 -0.4841 -0.4156
  448WAT     H1 1555   3.056   1.850   4.847  2.7637 -1.1511  4.4397
  448WAT     H2 1556   3.149   1.960   4.800  0.5923 -0.4677  1.3485
  449WAT      O 1557   2.802   2.793   1.230 -0.3147 -0.5963 -0.8067
  449WAT     H1 1558   2.854   2.821   1.155 -0.5462  0.3372 -0.6272
  449WAT     H2 1559   2.747   2.868   1.251 -1.0745 -1.2468 -0.4118
  450WAT      O 1560   0.814   4.079   1.970 -0.1039  0.0727 -0.3598
  450WAT     H1 1561   0.869   4.062   2.046 -0.2883  0.8067 -0.0510
  450WAT     H2 1562   0.876   4.092   1.898  0.0574 -1.0162 -0.4262
  451WAT      O 1563   4.410   1.317   3.374  0.0332  0.1424 -0.6932
  451WAT     H1 1564   4.458   1.376   3.432  1.2710  0.2225 -1.7450
  451WAT     H2 1565   4.372   1.251   3.431  0.3147  0.8163  0.2943
  452WAT      O 1566   1.567   5.134   3.098  0.1290 -0.2950 -0.1323
  452WAT     H1 1567   1.531   5.046   3.112 -0.0778 -0.1043  0.5816
  452WAT     H2 1568   1.504   5.192   3.142  0.2757  0.2091 -0.5808
  453WAT      O 1569   1.910   4.013   2.625 -0.4288  0.5781 -0.3308
  453WAT     H1 1570   1.942   4.090   2.671  0.4185  0.0037  0.0811
  453WAT     H2 1571   1.989   3.966   2.599 -0.9253 -0.0492 -0.7602
  454WAT      O 1572   0.397   1.679   5.258  0.1803  0.4566  0.4309
  454WAT     H1 1573   0.442   1.761   5.277  1.1812 -0.1796  0.9049
  454WAT     H2 1574   0.440   1.615   5.315  0.6221 -0.7588 -1.2207
  455WAT      O 1575   4.592   1.635   4.485  0.4907  0.3008 -0.1238
  455WAT     H1 1576   4.597   1.704   4.552 -1.5005  0.2501  0.1403
  455WAT     H2 1577   4.680   1.632   4.448  2.1247 -0.6335  3.4030
  456WAT      O 1578   0.230   2.246   0.296  0.7509 -0.2295 -0.0091
  456WAT     H1 1579   0.209   2.168   0.348 -3.2532  0.8596  0.3239
  456WAT     H2 1580   0.256   2.312   0.360 -1.3602  0.2675  0.3892
  457WAT      O 1581   4.221   0.896   1.860 -0.7561  0.2278  0.0368
  457WAT     H1 1582   4.152   0.921   1.922 -0.8282  2.0866 -0.7412
  457WAT     H2 1583   4.293   0.956   1.879  0.5077 -1.3374  0.4801
  458WAT      O 1584   2.651   3.780   0.460 -0.4905  0.0744  0.2138
  458WAT     H1 1585   2.651   3.801   0.367  0.7736  0.3198  0.2474
  458WAT     H2 1586   2.719   3.713   0.470 -1.1656 -0.5277  0.8395
  459WAT      O 1587   2.254   1.383   5.130 -0.9906 -0.0843  0.4764
  459WAT     H1 1588   2.230   1.305   5.081 -0.1408 -0.9227  1.3534
  459WAT     H2 1589   2.220   1.456   5.078  1.2789 -0.8002 -2.2476
  460WAT      O 1590   4.376   2.770   0.304  0.1779 -0.4039  0.2255
  460WAT     H1 1591   4.336   2.829   0.240 -0.3054 -1.2708 -0.2762
  460WAT     H2 1592   4.395   2.690   0.255 -0.5292 -1.2200  1.2444
  461WAT      O 1593   3.831   2.186   5.314 -0.1127  0.1280 -0.4923
  461WAT     H1 1594   3.906   2.230   5.354  1.3925 -0.2943 -2.7297
  461WAT     H2 1595   3.759   2.249   5.322  0.6437  0.8583  0.9430
  462WAT      O 1596   4.179   1.647   4.036 -0.1938 -0.0417  0.2211
  462WAT     H1 1597   4.232   1.574   4.067 -0.3715 -0.1226  0.3262
  462WAT     H2 1598   4.225   1.725   4.068  0.2598 -0.0862 -0.2913
  463WAT      O 1599   4.162   2.532   4.546 -0.1182 -0.3955  0.2315
  463WAT     H1 1600   4.199   2.619   4.532 -0.1082 -0.6859 -1.9726
  463WAT     H2 1601   4.100   2.543   4.618 -1.3751  1.8428 -1.0836
  464WAT      O 1602   3.255   0.269   4.250  0.0313  0.0084 -0.1940
  464WAT     H1 1603   3.237   0.175   4.262  0.0530  0.1744  1.3754
  464WAT     H2 1604   3.173   0.306   4.220  0.2788 -0.6478 -1.7851
  465WAT      O 1605   0.850   3.743   3.054 -0.7670  0.3147 -0.4155
  465WAT     H1 1606   0.759   3.721   3.071 -0.8294  0.4170 -0.6212
  465WAT     H2 1607   0.897   3.714   3.133 -0.7602 -1.0373 -0.9033
  466WAT      O 1608   2.239   5.150   3.237  0.6415 -0.8284 -0.4875
  466WAT     H1 1609   2.215   5.243   3.230 -0.4130 -0.9940  0.7030
  466WAT     H2 1610   2.245   5.134   3.331 -0.2051 -2.2158 -0.6452
  467WAT      O 1611   4.719   2.540   2.924  0.7943 -0.3814 -0.2328
  467WAT     H1 1612   4.801   2.533   2.973  0.1388 -0.9756  0.8141
  467WAT     H2 1613   4.664   2.471   2.960 -0.0556 -0.2047 -1.1613
  468WAT      O 1614   3.528   5.044   3.361 -0.3659 -0.1294 -0.2608
  468WAT     H1 1615   3.495   4.965   3.403 -0.8294  0.1089 -0.1714
  468WAT     H2 1616   3.500   5.035   3.269  1.8059 -1.3073 -0.8887
  469WAT      O 1617   4.092   1.040   4.355 -0.2148 -0.7810  0.4319
  469WAT     H1 1618   4.053   1.105   4.414  1.1742  0.7885 -0.3269
  469WAT     H2 1619   4.024   0.973   4.346 -0.9146 -0.5151  2.8792
  470WAT      O 1620   1.325   4.338   2.592 -0.4641  0.3593  0.2697
  470WAT     H1 1621   1.419   4.338   2.573 -0.5758  0.2325 -0.3211
  470WAT     H2 1622   1.314   4.403   2.662 -0.0354  0.9632 -0.2090
  471WAT      O 1623   4.956   1.608   5.607  0.1535 -0.5039 -0.4475
  471WAT     H1 1624   5.015   1.671   5.564  0.0864  0.6093  1.0403
  471WAT     H2 1625   5.014   1.555   5.662 -0.2133  0.7079  1.1563
  472WAT      O 1626   0.130   4.185   4.783  0.2032  0.3845  0.1612
  472WAT     H1 1627   0.164   4.149   4.701  1.3167  1.0762  0.2926
  472WAT     H2 1628   0.051   4.232   4.759 -0.1251 -0.4061 -0.3290
  473WAT      O 1629   2.690   5.162   5.218  0.1817 -0.0008 -0.1459
  473WAT     H1 1630   2.733   5.098   5.274  0.0887  0.6849  0.7330
  473WAT     H2 1631   2.605   5.123   5.198 -0.9195  0.8766  2.4477
  474WAT      O 1632   3.546   0.364   3.630 -0.2777  0.1651  0.3718
  474WAT     H1 1633   3.521   0.290   3.686 -1.4765  2.3455  2.9322
  474WAT     H2 1634   3.640   0.372   3.640 -0.2957 -0.3224  0.9510
  475WAT      O 1635   2.845   2.478   3.314  0.1902 -0.1353  0.4524
  475WAT     H1 1636   2.805   2.489   3.400 -0.1667 -0.2901  0.3051
  475WAT     H2 1637   2.937   2.502   3.328 -0.0709  0.7560  0.6565
  476WAT      O 1638   1.387   2.643   0.479 -0.1217 -0.4331 -0.7012
  476WAT     H1 1639   1.327   2.573   0.504 -1.1800  0.2021 -1.3531
  476WAT     H2 1640   1.447   2.652   0.553 -1.4502 -0.4337  0.4087
  477WAT      O 1641   0.146   2.758   3.202 -0.4655 -0.2576 -0.1543
  477WAT     H1 1642   0.176   2.674   3.236  2.0520  0.6291  0.0615
  477WAT     H2 1643   0.124   2.808   3.281 -0.5207 -0.2263 -0.1900
  478WAT      O 1644   4.452   2.443   0.950 -0.1722 -0.0262  0.2090
  478WAT     H1 1645   4.488   2.372   0.897  2.0740 -0.4242  2.0636
  478WAT     H2 1646   4.478   2.523   0.904  0.4906 -0.3718 -0.0296
  479WAT      O 1647   3.638   3.346   3.943 -1.0006 -0.6332 -0.3799
  479WAT     H1 1648   3.606   3.424   3.988  1.5755 -0.7040  1.8863
  479WAT     H2 1649   3.676   3.379   3.862  1.1961  0.8293  1.1078
  480WAT      O 1650   4.570   1.494   3.553 -0.3324  0.2630 -0.4904
  480WAT     H1 1651   4.546   1.586   3.554  1.3217  0.7324  0.0505
  480WAT     H2 1652   4.658   1.492   3.515  0.1598 -0.9268  0.6047
  481WAT      O 1653   3.327   5.128   4.782  0.1054  0.1114  0.1308
  481WAT     H1 1654   3.384   5.070   4.833  1.0453  2.6423  2.2211
  481WAT     H2 1655   3.386   5.194   4.746 -1.1997  1.4026  0.2726
  482WAT      O 1656   4.874   3.287   3.444 -0.0786 -0.0122  0.0446
  482WAT     H1 1657   4.787   3.251   3.431 -0.0788 -0.0702  0.2159
  482WAT     H2 1658   4.918   3.274   3.360 -0.8191  1.6259 -0.6491
  483WAT      O 1659   3.246   5.189   1.391 -0.1388 -0.3627 -0.1015
  483WAT     H1 1660   3.283   5.124   1.332 -0.1374 -1.2932  0.8855
  483WAT     H2 1661   3.317   5.211   1.451 -0.4753 -0.3487  0.3021
  484WAT      O 1662   1.284   3.992   5.182  0.3562 -0.0088 -0.1214
  484WAT     H1 1663   1.214   3.928   5.191  1.3571 -1.0187  0.8061
  484WAT     H2 1664   1.303   3.993   5.088  0.5341 -1.3190 -0.1143
  485WAT      O 1665   3.408   0.531   3.079  0.3166 -0.8173  0.1338
  485WAT     H1 1666   3.477   0.585   3.119  1.5419 -0.5689 -2.1779
  485WAT     H2 1667   3.455   0.457   3.041 -0.8556 -1.2571 -0.4782
  486WAT      O 1668   4.814   1.623   5.217 -0.1101  0.3690  0.0942
  486WAT     H1 1669   4.896   1.573   5.223 -0.2276  0.3284  2.1000
  486WAT     H2 1670   4.827   1.681   5.142  2.5637  1.6818  1.4269
  487WAT      O 1671   0.238   2.426   1.777 -0.4533 -0.0809  0.1308
  487WAT     H1 1672   0.213   2.341   1.812  1.0045 -0.4908  0.2039
  487WAT     H2 1673   0.157   2.478   1.782 -1.4409 -1.5259 -0.1835
  488WAT      O 1674   3.874   1.177   2.739  0.5740  0.1648  0.7624
  488WAT     H1 1675   3.930   1.231   2.795 -0.0232 -0.2167  1.7442
  488WAT     H2 1676   3.788   1.220   2.743  0.1791 -0.6640  1.2719
  489WAT      O 1677   4.523   2.669   5.195 -0.3661  0.3719 -0.4102
  489WAT     H1 1678   4.427   2.675   5.192 -0.3885 -0.2078 -2.9592
  489WAT     H2 1679   4.550   2.753   5.233 -1.8191  1.8060 -2.3276
  490WAT      O 1680   0.017   3.234   5.370 -0.3572 -0.1361  0.2672
  490WAT     H1 1681  -0.008   3.142   5.365  1.2448 -0.5736 -0.4139
  490WAT     H2 1682   0.112   3.232   5.378 -0.4199  1.4413  1.8531
  491WAT      O 1683   4.823   2.311   5.066 -0.4382 -0.5423 -0.4640
  491WAT     H1 1684   4.818   2.316   4.970 -2.6450 -2.2228 -0.5354
  491WAT     H2 1685   4.857   2.396   5.093 -0.5129  0.2745 -2.7014
  492WAT      O 1686   1.070   3.299   5.649  0.2497  0.3780 -0.0776
  492WAT     H1 1687   1.018   3.285   5.728  0.0981 -0.1873 -0.2788
  492WAT     H2 1688   1.015   3.267   5.577  1.0193 -0.5867 -0.2556
  493WAT      O 1689   3.051   0.671   4.382  0.0430  0.3947  0.3082
  493WAT     H1 1690   3.089   0.602   4.436 -1.0324 -0.2064  0.3317
  493WAT     H2 1691   3.126   0.716   4.343  0.8590  1.0575  2.5290
  494WAT      O 1692   0.711   1.720   3.324 -0.3014  0.0570  0.1005
  494WAT     H1 1693   0.726   1.689   3.235  2.1794 -1.2741  0.9089
  494WAT     H2 1694   0.646   1.659   3.359 -0.7015  0.1142 -0.5074
  495WAT      O 1695   2.703   1.467   3.141 -0.0961  0.1015  0.4580
  495WAT     H1 1696   2.697   1.433   3.052  1.8754  1.3901 -0.2406
  495WAT     H2 1697   2.693   1.390   3.197 -1.5093 -0.7141 -0.8444
  496WAT      O 1698   1.526   3.843   5.612  0.6019 -0.5497 -0.4693
  496WAT     H1 1699   1.471   3.869   5.538  1.2582  0.2200 -0.7023
  496WAT     H2 1700   1.572   3.923   5.637  1.5344 -1.1496 -0.2090
  497WAT      O 1701   0.704   2.655   5.597  0.6756  0.1533 -0.0901
  497WAT     H1 1702   0.721   2.730   5.653 -0.0864 -0.5762  1.1597
  497WAT     H2 1703   0.781   2.650   5.540  2.3169 -0.1083  2.0459
  498WAT      O 1704   3.826   2.064   0.188 -0.4597  0.3455  0.4365
  498WAT     H1 1705   3.912   2.027   0.206 -1.1202 -1.5935 -0.1440
  498WAT     H2 1706   3.827   2.083   0.095 -0.8226 -0.2336  0.3036
  499WAT      O 1707   3.096   4.457   5.618  0.0779  0.3869 -0.3569
  499WAT     H1 1708   3.025   4.504   5.576  0.7645 -0.1546 -2.2225
  499WAT     H2 1709   3.172   4.515   5.608 -0.2355  1.4513  2.5649
  500WAT      O 1710   3.783   3.060   3.665 -0.1061  0.0660  0.1482
  500WAT     H1 1711   3.792   2.966   3.680 -2.0338 -0.0247  0.9057
  500WAT     H2 1712   3.760   3.067   3.572  1.5728 -0.0708 -0.3085
  501WAT      O 1713   3.339   2.781   3.599 -0.2341 -0.5807 -0.3889
  501WAT     H1 1714   3.283   2.804   3.672 -0.5818 -1.1040 -0.4821
  501WAT     H2 1715   3.328   2.686   3.589  0.6891 -0.6943 -0.3904
  502WAT      O 1716   3.868   1.997   4.147 -0.1715  0.0046  0.0132
  502WAT     H1 1717   3.936   2.014   4.083  0.1203  1.6983  0.7192
  502WAT     H2 1718   3.911   2.007   4.232 -0.8138 -1.0332  0.4859
  503WAT      O 1719   3.495   5.509   1.821  0.1558 -0.6366 -0.4870
  503WAT     H1 1720   3.428   5.451   1.785 -2.1592  0.8877  1.0915
  503WAT     H2 1721   3.512   5.476   1.909  1.7771 -1.1886 -0.9755
  504WAT      O 1722   1.446   2.782   0.979 -0.1776  0.2237  0.0135
  504WAT     H1 1723   1.386   2.715   1.012 -0.5181  1.0919  1.2234
  504WAT     H2 1724   1.403   2.865   0.998  0.7036  0.8291 -0.5235
  505WAT      O 1725   4.073   3.327   3.857  0.1740  0.3893 -0.4130
  505WAT     H1 1726   4.071   3.413   3.816 -0.5319 -0.3466 -1.9767
  505WAT     H2 1727   4.119   3.342   3.940  0.9729  2.0679 -1.1045
  506WAT      O 1728   3.416   1.032   4.912 -0.2686  0.3280  0.3863
  506WAT     H1 1729   3.394   1.120   4.941  1.0208  0.7213  0.2345
  506WAT     H2 1730   3.394   1.031   4.819 -0.7865  0.3095  0.5071
  507WAT      O 1731   1.058   2.823   3.714 -0.4739 -0.4686 -0.0150
  507WAT     H1 1732   1.036   2.770   3.790  0.5766 -1.3327 -0.2889
  507WAT     H2 1733   1.107   2.897   3.750 -0.1910 -0.7492  0.1811
  508WAT      O 1734   2.726   0.568   3.340 -0.4878 -0.5300 -0.0020
  508WAT     H1 1735   2.760   0.653   3.368 -1.9523  1.0912 -2.6515
  508WAT     H2 1736   2.654   0.549   3.401  0.3552 -0.2816  1.0865
  509WAT      O 1737   0.219   2.507   3.261  0.0517 -0.5484  0.1087
  509WAT     H1 1738   0.303   2.502   3.215 -0.1741  0.3847 -0.4388
  509WAT     H2 1739   0.175   2.425   3.241  0.0882 -0.2929 -1.1088
  510WAT      O 1740   4.267   2.177   5.010 -0.5063  0.1179  0.2743
  510WAT     H1 1741   4.297   2.144   4.925  0.4134  1.6976 -0.0632
  510WAT     H2 1742   4.298   2.113   5.074 -1.3143 -1.1544 -0.5684
  511WAT      O 1743   0.081   4.384   2.750  0.4831  0.3111  0.2189
  511WAT     H1 1744   0.150   4.321   2.730  1.1908  0.7581  1.1963
  511WAT     H2 1745   0.056   4.365   2.840 -2.1163 -1.1685 -0.6976
  512WAT      O 1746   0.795   2.042   4.449 -0.5396  0.3095  0.5376
  512WAT     H1 1747   0.776   2.106   4.381 -4.2384 -0.7594  0.3514
  512WAT     H2 1748   0.727   1.976   4.440  2.5124 -3.3164  1.2633
  513WAT      O 1749   2.258   5.456   2.742  0.5451 -0.2867 -0.5966
  513WAT     H1 1750   2.300   5.532   2.782  0.4009 -0.2106 -0.5888
  513WAT     H2 1751   2.263   5.388   2.809 -1.8432  0.5220  0.5388
  514WAT      O 1752   4.540   3.372   5.037 -0.0450  0.1194 -0.3295
  514WAT     H1 1753   4.478   3.318   5.087 -1.5992  0.2148 -2.0269
  514WAT     H2 1754   4.625   3.354   5.076 -0.9240 -1.2691  1.0665
  515WAT      O 1755   3.579   0.583   4.300  0.6335 -0.3645  1.1085
  515WAT     H1 1756   3.505   0.549   4.351 -0.6352 -0.8568 -0.9543
  515WAT     H2 1757   3.642   0.612   4.366 -0.7536 -1.3104  2.9426
  516WAT      O 1758   0.602   1.575   4.606 -0.1019  0.4718 -0.5288
  516WAT     H1 1759   0.629   1.526   4.684 -0.3217  1.8088  0.4138
  516WAT     H2 1760   0.582   1.663   4.638 -0.6231  0.9345 -2.0324
  517WAT      O 1761   2.420   0.524   0.827 -0.1948 -0.1869 -0.2601
  517WAT     H1 1762   2.514   0.514   0.811  0.0614  0.1778  0.9199
  517WAT     H2 1763   2.411   0.613   0.861 -0.8284 -0.5434  0.5400
  518WAT      O 1764   3.695   5.148   3.586  0.7062  0.0576 -0.1412
  518WAT     H1 1765   3.671   5.063   3.623  0.2743  0.5184  0.6687
  518WAT     H2 1766   3.625   5.167   3.524  1.5064 -0.7833 -1.3490
  519WAT      O 1767   0.425   2.844   2.462  0.0495  0.6107  0.1946
  519WAT     H1 1768   0.362   2.842   2.534 -0.5861  1.9796 -0.2824
  519WAT     H2 1769   0.470   2.928   2.473  2.9575 -0.9499  1.4366
  520WAT      O 1770   4.346   4.243   2.963  0.1745 -0.4761 -0.0076
  520WAT     H1 1771   4.407   4.256   3.036  0.5898 -0.3326 -0.3730
  520WAT     H2 1772   4.314   4.153   2.975  0.1843 -0.4278  0.3918
  521WAT      O 1773   0.315   2.816   5.391 -0.3686  0.5718 -0.1961
  521WAT     H1 1774   0.359   2.736   5.363  1.2890  1.9697 -1.8079
  521WAT     H2 1775   0.247   2.830   5.325  0.0456  1.0539 -0.5217
  522WAT      O 1776   2.223   4.527   3.422 -0.0103  0.6312  1.0925
  522WAT     H1 1777   2.251   4.605   3.469 -0.7151  0.7245  1.3670
  522WAT     H2 1778   2.198   4.559   3.335  0.4042  0.6014  0.9638
  523WAT      O 1779   2.569   3.753   3.076  0.0560 -0.2090  0.1484
  523WAT     H1 1780   2.489   3.796   3.104 -0.3522 -0.6850 -0.2529
  523WAT     H2 1781   2.569   3.669   3.122 -0.1337 -0.5859 -0.5244
  524WAT      O 1782   2.706   2.990   0.537  0.0650  0.0501  0.0862
  524WAT     H1 1783   2.677   3.078   0.560 -0.2114  0.5558 -1.9991
  524WAT     H2 1784   2.773   2.969   0.602 -0.3056  1.5473  0.9906
  525WAT      O 1785   4.731   0.829   1.024 -0.2098 -0.5188  0.5384
  525WAT     H1 1786   4.706   0.915   1.058 -0.6155 -0.5534  0.3293
  525WAT     H2 1787   4.654   0.799   0.975  0.5857 -0.1976 -0.9393
  526WAT      O 1788   2.949   1.665   4.967 -0.1861  0.3545 -0.6276
  526WAT     H1 1789   2.871   1.716   4.948  0.1238  1.0408 -0.1013
  526WAT     H2 1790   2.971   1.688   5.057 -1.6862 -2.8507  0.7304
  527WAT      O 1791   3.489   3.657   0.960 -0.2809  0.3591  0.3183
  527WAT     H1 1792   3.574   3.660   0.915 -1.2376 -1.5382 -1.8381
  527WAT     H2 1793   3.460   3.567   0.948 -3.0894  1.2333  0.0349
  528WAT      O 1794   2.305   4.425   2.856  0.2362 -0.4565 -0.3216
  528WAT     H1 1795   2.385   4.476   2.838 -0.1259  1.3993  2.6765
  528WAT     H2 1796   2.328   4.371   2.931 -0.7611 -1.3630 -0.6551
  529WAT      O 1797   2.694   2.084   4.570  0.3994 -0.2781 -0.1937
  529WAT     H1 1798   2.644   2.091   4.651  0.0042  1.4592 -0.5405
  529WAT     H2 1799   2.771   2.139   4.585  0.7162 -0.5656 -0.7288
  530WAT      O 1800   4.279   2.836   3.341  0.1731 -0.0140 -0.5051
  530WAT     H1 1801   4.189   2.848   3.312  0.2149  1.6169 -0.0302
  530WAT     H2 1802   4.282   2.875   3.429  1.1144 -0.9229 -0.1063
  531WAT      O 1803   2.273   2.796   0.504 -0.5447  0.7533  0.5559
  531WAT     H1 1804   2.253   2.885   0.473 -2.0405  0.2618  0.0306
  531WAT     H2 1805   2.347   2.808   0.564  0.2822  2.1646 -0.6561
  532WAT      O 1806   3.894   4.992   2.606  0.3726  0.7358 -0.0263
  532WAT     H1 1807   3.901   5.076   2.653  0.3932  1.3275 -1.0519
  532WAT     H2 1808   3.921   5.013   2.516  2.3347 -0.8017  0.1329
  533WAT      O 1809   0.576   4.172   4.924 -0.3126 -0.1489  0.2585
  533WAT     H1 1810   0.491   4.198   4.958 -0.8888 -1.4728 -0.1242
  533WAT     H2 1811   0.578   4.207   4.835  0.4889  1.8081  0.9831
  534WAT      O 1812   2.590   1.480   0.419  0.7805  0.4079 -0.1018
  534WAT     H1 1813   2.654   1.512   0.355  0.9187 -0.4770 -0.4109
  534WAT     H2 1814   2.577   1.388   0.396  0.5937  0.1620  0.9536
  535WAT      O 1815   1.940   3.046   1.251  0.5452 -0.0875 -0.6378
  535WAT     H1 1816   1.924   2.957   1.283  1.7559 -0.4539 -0.9947
  535WAT     H2 1817   1.866   3.097   1.284  0.1516 -1.0987  0.0934
  536WAT      O 1818   2.292   3.625   4.131 -0.1825  0.7475 -0.1016
  536WAT     H1 1819   2.254   3.608   4.045  2.2578  2.1898 -1.5827
  536WAT     H2 1820   2.347   3.702   4.119  2.0636 -0.3291  2.1633
  537WAT      O 1821   3.620   4.257   3.443 -0.1649 -0.4619 -0.6086
  537WAT     H1 1822   3.550   4.317   3.420  1.6456  0.8362 -3.1474
  537WAT     H2 1823   3.616   4.188   3.378 -1.3693 -2.5134  1.4829
  538WAT      O 1824   2.521   5.232   5.506 -0.3936 -0.4048  0.0169
  538WAT     H1 1825   2.443   5.178   5.508 -0.4854 -0.2693  1.3869
  538WAT     H2 1826   2.565   5.209   5.424 -0.9444 -1.7915  0.0855
  539WAT      O 1827   4.467   3.254   5.292 -0.0959  0.3778 -0.0091
  539WAT     H1 1828   4.482   3.348   5.301  0.1445  0.4499 -1.0805
  539WAT     H2 1829   4.372   3.246   5.284 -0.2047  0.4271  1.1284
  540WAT      O 1830   3.654   2.985   5.543 -0.0678 -0.1061 -0.1714
  540WAT     H1 1831   3.686   3.075   5.553  1.0909 -0.3967 -1.0064
  540WAT     H2 1832   3.576   2.993   5.488  0.0487  0.3949 -0.2688
  541WAT      O 1833   4.638   2.584   0.148  0.3536  0.0253  0.0627
  541WAT     H1 1834   4.697   2.510   0.134  0.6410  0.6962 -3.0142
  541WAT     H2 1835   4.685   2.659   0.111 -2.1424  0.6567 -2.2122
  542WAT      O 1836   3.011   4.472   4.841  0.5303  0.1975  0.5385
  542WAT     H1 1837   3.102   4.493   4.861  0.7991 -0.9438  0.5785
  542WAT     H2 1838   2.985   4.408   4.908  0.5174 -1.4352 -0.9574
  543WAT      O 1839   3.966   2.127   0.431 -0.2928 -0.7696  0.3046
  543WAT     H1 1840   3.960   2.035   0.456  0.9602 -1.6419 -2.3830
  543WAT     H2 1841   4.043   2.160   0.477  0.0864 -1.4522  0.1611
  544WAT      O 1842   3.178   0.186   3.927  0.2416 -0.6758 -0.2008
  544WAT     H1 1843   3.202   0.279   3.926  0.3200 -0.6423 -2.6777
  544WAT     H2 1844   3.094   0.183   3.972  0.8992  0.3610  1.1811
  545WAT      O 1845   1.301   2.165   4.502 -0.2247 -0.1618  0.5472
  545WAT     H1 1846   1.332   2.146   4.590 -2.4829  0.9269  1.6676
  545WAT     H2 1847   1.215   2.123   4.497 -0.6434  0.7650 -0.7062
  546WAT      O 1848   3.669   1.898   4.425  0.2649  0.2795 -0.0907
  546WAT     H1 1849   3.720   1.909   4.345  1.4369  1.1453  0.7433
  546WAT     H2 1850   3.650   1.987   4.455 -2.1704  0.0169 -0.5861
  547WAT      O 1851   4.484   1.069   4.002  0.3360  0.2330  0.2705
  547WAT     H1 1852   4.475   1.117   3.920  1.4773 -0.4263 -0.2711
  547WAT     H2 1853   4.552   1.004   3.984  0.0259 -0.4641  1.4962
  548WAT      O 1854   1.997   5.539   4.030  0.0536  0.3625  0.2349
  548WAT     H1 1855   1.981   5.598   3.956 -1.0092  0.0401  0.1888
  548WAT     H2 1856   2.012   5.454   3.990 -1.4356 -0.0055  0.3937
  549WAT      O 1857   4.330   1.061   4.673  0.4576 -0.4248 -0.2242
  549WAT     H1 1858   4.306   1.115   4.598  0.1473 -1.3983 -0.8516
  549WAT     H2 1859   4.404   1.009   4.642 -0.2450 -1.4875 -0.1855
  550WAT      O 1860   4.377   2.213   3.938  0.5225  0.2005  0.7432
  550WAT     H1 1861   4.329   2.150   3.883 -0.9593  2.9027 -1.2984
  550WAT     H2 1862   4.464   2.218   3.898  0.0134  0.8388 -0.3413
  551WAT      O 1863   2.885   2.842   4.658  0.5469  0.0179  0.5721
  551WAT     H1 1864   2.815   2.830   4.723  0.2363 -1.5748 -0.0015
  551WAT     H2 1865   2.955   2.886   4.707 -0.5205  0.8905  1.3757
  552WAT      O 1866   3.716   1.545   1.740  0.3575 -0.5746 -0.1039
  552WAT     H1 1867   3.760   1.567   1.658 -0.8508 -0.5953 -0.7767
  552WAT     H2 1868   3.773   1.582   1.808  2.0756 -1.6957 -0.8514
  553WAT      O 1869   0.024   2.058   1.947  0.6240 -0.1994 -0.1951
  553WAT     H1 1870   0.002   2.073   1.856 -2.2531  1.2128  0.6189
  553WAT     H2 1871   0.040   1.964   1.953  2.1166 -0.1447 -2.3110
  554WAT      O 1872   1.485   3.130   5.008  0.1841  0.2470 -0.3410
  554WAT     H1 1873   1.449   3.200   5.063 -1.0943  0.3835 -1.3071
  554WAT     H2 1874   1.565   3.167   4.972  0.4221  0.5780  0.4984
  555WAT      O 1875   4.330   3.333   0.816 -0.1327 -0.9458  0.1179
  555WAT     H1 1876   4.240   3.353   0.791 -0.2138 -1.6289 -0.1546
  555WAT     H2 1877   4.359   3.410   0.866 -0.2633  0.0796 -1.3141
  556WAT      O 1878   1.966   1.613   2.019  0.0875 -0.7350  0.2598
  556WAT     H1 1879   1.872   1.617   2.001  0.2348 -0.1779 -0.4070
  556WAT     H2 1880   1.990   1.522   1.999 -0.1044 -0.6016 -0.6112
  557WAT      O 1881   3.997   0.687   2.880 -0.3151  0.5746  0.3449
  557WAT     H1 1882   4.025   0.639   2.958 -0.3519  1.8782  1.2079
  557WAT     H2 1883   4.077   0.725   2.844 -0.0559 -1.3774 -1.2621
  558WAT      O 1884   4.611   4.452   0.335 -0.1023 -0.2447  0.2406
  558WAT     H1 1885   4.551   4.517   0.298 -0.3304 -0.3815  0.3728
  558WAT     H2 1886   4.558   4.401   0.395  0.0084 -0.7597 -0.0951
  559WAT      O 1887   4.422   3.593   2.956 -0.0571  0.2347  0.0294
  559WAT     H1 1888   4.368   3.516   2.939 -0.3516  0.9439 -2.8307
  559WAT     H2 1889   4.383   3.632   3.034 -3.1785  0.1824 -1.3224
  560WAT      O 1890   2.083   0.782   5.651  0.2903  0.5030  0.0969
  560WAT     H1 1891   2.076   0.695   5.690 -0.1733  0.3235 -0.3622
  560WAT     H2 1892   2.024   0.837   5.704 -1.4008 -0.0394 -1.1154
  561WAT      O 1893   4.331   1.496   4.919  0.3430  0.3170  0.0806
  561WAT     H1 1894   4.367   1.530   4.837 -0.4028  0.3676 -0.2334
  561WAT     H2 1895   4.236   1.496   4.905  0.2515 -0.3920  0.6680
  562WAT      O 1896   4.757   2.865   0.741 -0.3332 -0.1809  0.2097
  562WAT     H1 1897   4.760   2.772   0.718 -1.9765 -0.0375 -0.7871
  562WAT     H2 1898   4.838   2.901   0.705 -0.2392 -1.0314 -0.4644
  563WAT      O 1899   0.362   2.436   1.539 -0.5892  0.2851 -0.2162
  563WAT     H1 1900   0.329   2.449   1.628 -2.9082  0.5574 -1.0501
  563WAT     H2 1901   0.324   2.507   1.488  0.8641  0.2529 -1.4150
  564WAT      O 1902   0.180   4.014   3.015 -0.3406  0.2927  0.4983
  564WAT     H1 1903   0.207   3.954   2.945  1.0634 -0.0599  1.2944
  564WAT     H2 1904   0.113   3.965   3.063 -0.7177  0.2078 -0.1027
  565WAT      O 1905   3.662   3.334   5.005 -0.8135  0.6846 -0.7090
  565WAT     H1 1906   3.659   3.308   4.913 -1.1753  1.3468 -0.8902
  565WAT     H2 1907   3.604   3.410   5.011 -0.7118  0.7159  0.0463
  566WAT      O 1908   3.330   2.721   1.805 -0.2142 -0.8289  0.0768
  566WAT     H1 1909   3.385   2.644   1.818 -1.0992 -1.3986  0.5393
  566WAT     H2 1910   3.389   2.795   1.820  0.5379 -1.4122  0.0668
  567WAT      O 1911   4.187   3.256   3.220  0.4912 -0.3051 -0.1582
  567WAT     H1 1912   4.202   3.319   3.290  0.8984  0.2684 -0.7514
  567WAT     H2 1913   4.105   3.212   3.245  0.8107 -0.3589  0.8429
  568WAT      O 1914   3.276   0.960   3.247 -0.4428  0.1302 -0.4582
  568WAT     H1 1915   3.259   0.926   3.159  0.8365 -1.1601 -0.2397
  568WAT     H2 1916   3.258   0.886   3.305 -0.0485  0.5853  0.2507
  569WAT      O 1917   4.624   4.038   2.355  0.1137 -0.3405  0.7804
  569WAT     H1 1918   4.650   4.061   2.444 -0.9681  0.6826  0.8631
  569WAT     H2 1919   4.603   4.123   2.314 -1.1643 -0.9475  0.1346
  570WAT      O 1920   4.880   2.676   4.487  0.5464 -0.1317  0.2900
  570WAT     H1 1921   4.968   2.709   4.507  2.2030 -3.3838 -0.8401
  570WAT     H2 1922   4.881   2.665   4.392 -0.4908 -1.7498  0.4418
  571WAT      O 1923   4.366   3.536   3.695 -0.3149 -0.2356  0.0996
  571WAT     H1 1924   4.417   3.544   3.614 -1.0727 -0.0874 -0.3703
  571WAT     H2 1925   4.432   3.516   3.762  0.6012  1.6054 -0.1706
  572WAT      O 1926   2.215   3.773   4.364  0.3161 -0.4388 -0.3644
  572WAT     H1 1927   2.139   3.826   4.338 -0.3246 -1.2466 -0.1750
  572WAT     H2 1928   2.222   3.706   4.296  0.8615 -0.3752 -0.3745
  573WAT      O 1929   4.145   2.232   2.518 -0.2379 -0.6029  0.1865
  573WAT     H1 1930   4.059   2.193   2.498 -0.0226 -0.4471 -1.1322
  573WAT     H2 1931   4.203   2.197   2.450  0.1955  1.1536 -0.3870
  574WAT      O 1932   1.597   1.517   0.948  0.0935 -0.4014  0.8082
  574WAT     H1 1933   1.584   1.592   1.007 -1.3864  0.7424 -0.8804
  574WAT     H2 1934   1.515   1.468   0.953  0.1506 -0.5802  0.0949
  575WAT      O 1935   0.695   1.529   3.922 -0.0842  0.0231 -0.0889
  575WAT     H1 1936   0.730   1.586   3.991  0.7076 -0.3220 -0.1899
  575WAT     H2 1937   0.635   1.470   3.967 -0.8086  0.8441  0.0389
  576WAT      O 1938   3.155   2.818   1.279  0.0287  0.1324  0.1813
  576WAT     H1 1939   3.124   2.906   1.258 -1.3056 -0.5606 -0.9077
  576WAT     H2 1940   3.081   2.776   1.323  1.2192  0.0425  2.2431
  577WAT      O 1941   2.808   1.716   1.552  0.2912 -0.1872  0.2946
  577WAT     H1 1942   2.798   1.735   1.459  0.9876  1.8729  0.5927
  577WAT     H2 1943   2.780   1.625   1.561 -0.9713 -0.0621 -1.7165
  578WAT      O 1944   3.854   3.081   2.627  0.0681 -0.1467  0.1233
  578WAT     H1 1945   3.846   3.021   2.553 -0.7443 -0.8249  0.7354
  578WAT     H2 1946   3.884   3.026   2.700  0.2875  0.3952  0.4574
  579WAT      O 1947   0.130   1.636   5.177  0.1498  0.1806  0.1507
  579WAT     H1 1948   0.095   1.716   5.138 -2.8692 -1.6827 -1.3624
  579WAT     H2 1949   0.224   1.638   5.155 -0.1956  2.3812 -1.4926
  580WAT      O 1950   3.591   4.002   4.235  1.1664 -0.1349 -0.0860
  580WAT     H1 1951   3.622   3.911   4.235  1.4308 -0.0573  0.8089
  580WAT     H2 1952   3.504   3.997   4.195  1.2982 -0.7434 -0.3145
  581WAT      O 1953   4.715   0.924   0.569  0.8595  0.3317 -0.2437
  581WAT     H1 1954   4.775   0.974   0.625  1.4961 -0.4337 -0.2356
  581WAT     H2 1955   4.669   0.866   0.629  0.6293  0.4015 -0.3512
  582WAT      O 1956   0.289   2.782   2.139 -0.5654  0.0296 -0.6309
  582WAT     H1 1957   0.330   2.729   2.070 -0.1476 -1.2942  0.5899
  582WAT     H2 1958   0.361   2.833   2.175 -0.3112 -0.9452  0.2940
  583WAT      O 1959   3.685   3.559   3.577 -0.3531  0.0528 -0.0980
  583WAT     H1 1960   3.746   3.631   3.597 -0.5495 -0.0453  0.9327
  583WAT     H2 1961   3.727   3.482   3.615 -0.7359 -0.1556 -0.0948
  584WAT      O 1962   0.634   2.984   4.670 -0.0650 -0.3198  0.2727
  584WAT     H1 1963   0.706   2.956   4.613  0.0506  0.5785 -0.0317
  584WAT     H2 1964   0.675   3.045   4.732 -0.5098 -0.0354  0.2880
  585WAT      O 1965   4.021   3.677   3.447 -0.0352  0.0383 -0.1345
  585WAT     H1 1966   4.063   3.753   3.405 -0.5206  0.5484  0.2971
  585WAT     H2 1967   3.940   3.711   3.483 -0.3150 -0.7208 -0.0315
  586WAT      O 1968   1.415   2.908   3.469  0.1710 -0.3310 -0.2719
  586WAT     H1 1969   1.376   2.991   3.441  0.4751 -0.4596 -1.1366
  586WAT     H2 1970   1.399   2.849   3.395 -1.1726 -1.4330  0.8533
  587WAT      O 1971   4.742   4.040   2.591  0.1130 -0.1968  0.2166
  587WAT     H1 1972   4.768   4.016   2.680  1.8912  1.1811  0.1083
  587WAT     H2 1973   4.770   4.131   2.581 -0.9730  0.0097 -1.4290
  588WAT      O 1974   3.639   2.972   1.628 -0.2375  0.0453 -0.0753
  588WAT     H1 1975   3.711   3.023   1.665 -0.4736  1.9143 -2.0171
  588WAT     H2 1976   3.674   2.883   1.618  1.1606  0.4880  0.7236
  589WAT      O 1977   2.596   3.390   3.782  0.2810  0.2555 -0.3830
  589WAT     H1 1978   2.640   3.417   3.701 -0.4487  1.2844 -0.4654
  589WAT     H2 1979   2.639   3.309   3.807  0.4360 -0.1663 -1.8888
  590WAT      O 1980   1.799   3.905   0.762 -0.1772  0.3394 -0.4481
  590WAT     H1 1981   1.788   3.892   0.668 -0.4951 -1.5794 -0.1811
  590WAT     H2 1982   1.717   3.945   0.790  0.3457  1.9551 -1.1322
  591WAT      O 1983   1.584   2.019   5.236  0.1746 -0.1666 -0.0253
  591WAT     H1 1984   1.560   2.043   5.146  1.0937 -0.6776 -0.4260
  591WAT     H2 1985   1.501   2.003   5.280 -0.2740 -0.2955 -0.8964
  592WAT      O 1986   4.145   2.771   1.676  0.0609 -0.0565 -0.1614
  592WAT     H1 1987   4.080   2.802   1.738 -0.3816  0.7003 -0.9714
  592WAT     H2 1988   4.161   2.680   1.701 -1.7184 -0.4377 -0.2667
  593WAT      O 1989   0.434   4.076   0.489 -0.7396  0.2251  0.3044
  593WAT     H1 1990   0.427   4.096   0.582 -0.4932  1.1371  0.1304
  593WAT     H2 1991   0.372   4.135   0.446  0.5323  1.1895 -0.2801
  594WAT      O 1992   2.509   1.299   1.274 -0.2129 -0.4586  0.0366
  594WAT     H1 1993   2.450   1.228   1.299 -2.4091  1.4945  0.8034
  594WAT     H2 1994   2.452   1.365   1.236  1.6701  1.0892 -0.2815
  595WAT      O 1995   1.820   3.218   3.933 -0.1704 -0.1929  0.2036
  595WAT     H1 1996   1.740   3.166   3.942 -0.8815  0.9816  0.9535
  595WAT     H2 1997   1.882   3.160   3.890 -1.0390 -1.5548  0.7317
  596WAT      O 1998   2.050   2.113   1.131 -0.1741  0.2348  0.2421
  596WAT     H1 1999   2.022   2.184   1.073  0.8212  1.3496  1.0792
  596WAT     H2 2000   2.007   2.035   1.096 -3.0933  1.5640  0.5483
  597WAT      O 2001   3.453   0.212   3.855 -0.1513 -0.2673  0.0300
  597WAT     H1 2002   3.366   0.185   3.884 -1.0119  1.4675 -0.7650
  597WAT     H2 2003   3.465   0.299   3.894  0.8295 -0.0967 -0.6268
  598WAT      O 2004   0.038   1.712   2.846 -0.4656 -0.6092  0.1532
  598WAT     H1 2005   0.117   1.729   2.795  0.1046 -0.8235  0.9389
  598WAT     H2 2006  -0.033   1.748   2.794  0.2562  0.4417 -0.1284
  599WAT      O 2007   2.444   1.125   3.426 -0.1659 -0.1842 -0.4055
  599WAT     H1 2008   2.466   1.156   3.514 -0.2162 -1.2982  0.0061
  599WAT     H2 2009   2.359   1.164   3.407  0.6375  1.5432 -0.7168
  600WAT      O 2010   4.673   3.441   2.959 -0.2105 -0.0670  0.3522
  600WAT     H1 2011   4.589   3.467   2.997 -0.1327  2.1390 -0.8019
  600WAT     H2 2012   4.685   3.350   2.987 -2.1663  0.0858  1.9261
  601WAT      O 2013   1.637   1.623   3.538  1.0045  0.2925 -0.4458
  601WAT     H1 2014   1.689   1.662   3.468  0.7740 -0.1892 -0.8924
  601WAT     H2 2015   1.645   1.528   3.524  1.3844  0.1705  0.4881
  602WAT      O 2016   3.748   4.100   0.594 -0.2219 -0.1894 -0.2752
  602WAT     H1 2017   3.833   4.116   0.635  0.1558 -1.7252 -0.4009
  602WAT     H2 2018   3.759   4.017   0.548 -2.1435 -1.0437  0.7134
  603WAT      O 2019   2.967   1.497   2.339  0.2574  0.3554  0.1712
  603WAT     H1 2020   3.016   1.502   2.422  1.0735  1.1530 -0.3302
  603WAT     H2 2021   2.971   1.405   2.314  1.0240  0.3046  0.4423
  604WAT      O 2022   1.527   1.338   4.437 -0.0799 -0.4492 -0.0418
  604WAT     H1 2023   1.462   1.397   4.400 -0.1954  0.0635  0.9314
  604WAT     H2 2024   1.611   1.368   4.401 -0.2929 -0.6150 -0.6788
  605WAT      O 2025   2.048   1.104   0.212 -0.7723  0.1727 -0.1030
  605WAT     H1 2026   2.111   1.159   0.165 -0.9712  0.2778 -0.2509
  605WAT     H2 2027   2.100   1.058   0.278 -0.3456 -0.5857 -0.9484
  606WAT      O 2028   3.643   0.224   5.079  0.1232 -0.2026 -0.1176
  606WAT     H1 2029   3.645   0.156   5.012  0.3978  1.4533 -1.8468
  606WAT     H2 2030   3.696   0.187   5.150  0.0964 -1.8710 -0.9069
  607WAT      O 2031   4.178   4.990   3.382 -0.6356 -0.4372  0.3126
  607WAT     H1 2032   4.212   4.969   3.295  1.4624 -0.4857  1.0868
  607WAT     H2 2033   4.170   5.085   3.383 -1.7269 -0.5083 -0.2742
  608WAT      O 2034   2.000   4.180   4.263  0.2437 -0.0960  0.6120
  608WAT     H1 2035   2.057   4.106   4.243  1.4267  1.1662 -0.9799
  608WAT     H2 2036   1.921   4.164   4.211  1.6784  1.1378 -2.1492
  609WAT      O 2037   2.638   5.262   4.366 -0.1420 -0.1401 -0.0946
  609WAT     H1 2038   2.624   5.175   4.329  1.3168  0.3298 -1.9197
  609WAT     H2 2039   2.565   5.275   4.427 -1.6049 -1.7726 -1.3976
  610WAT      O 2040   3.845   2.455   3.586 -0.2769 -0.2213 -0.3850
  610WAT     H1 2041   3.886   2.376   3.551 -2.5052 -0.8388 -1.7662
  610WAT     H2 2042   3.905   2.525   3.562  0.1993 -1.1185 -1.9750
  611WAT      O 2043   2.078   3.363   3.448 -0.2699 -0.0965 -0.0699
  611WAT     H1 2044   2.114   3.393   3.531  2.4925  0.0152 -1.2060
  611WAT     H2 2045   1.985   3.346   3.466 -0.0280  1.1077  2.6743
  612WAT      O 2046   2.605   0.922   3.557  0.1060 -0.1618  0.4494
  612WAT     H1 2047   2.533   0.916   3.494  0.4438  1.7720 -0.1713
  612WAT     H2 2048   2.680   0.886   3.510 -0.3774 -2.2293  1.1144
  613WAT      O 2049   3.135   0.465   2.048  0.1406 -0.2199 -0.0915
  613WAT     H1 2050   3.124   0.381   2.003 -0.1745 -0.5720  0.6156
  613WAT     H2 2051   3.046   0.495   2.064  0.2482  0.4593 -0.6920
  614WAT      O 2052   0.191   3.023   3.665 -0.2344 -0.0923  0.2761
  614WAT     H1 2053   0.271   3.007   3.615 -0.4016  1.6128 -0.6086
  614WAT     H2 2054   0.163   3.110   3.638 -1.6249 -0.0773  1.6370
  615WAT      O 2055   3.246   0.752   3.465 -0.0841  0.1528  0.6948
  615WAT     H1 2056   3.337   0.735   3.487 -0.3881 -1.7614  0.6117
  615WAT     H2 2057   3.196   0.690   3.518 -1.5005  2.3691  2.1021
  616WAT      O 2058   4.316   1.101   3.610  0.0871 -0.1163  0.1629
  616WAT     H1 2059   4.339   1.170   3.673 -0.6036 -0.7837  1.1862
  616WAT     H2 2060   4.228   1.123   3.581 -0.3916 -0.8944  0.9825
  617WAT      O 2061   3.985   1.813   3.547  0.0077  0.4271  0.5187
  617WAT     H1 2062   3.925   1.753   3.503  0.2896 -0.8101  1.7714
  617WAT     H2 2063   4.065   1.809   3.494 -0.8512  1.8691 -0.9931
  618WAT      O 2064   0.476   2.174   3.446  0.0496  0.3430  0.4571
  618WAT     H1 2065   0.480   2.147   3.538 -0.6324  1.2674  0.7754
  618WAT     H2 2066   0.386   2.153   3.419  0.8163 -1.8116 -0.6330
  619WAT      O 2067   3.389   4.941   0.885  0.5438 -0.6060  0.3726
  619WAT     H1 2068   3.443   4.862   0.882 -0.8645 -1.7160  2.0364
  619WAT     H2 2069   3.311   4.914   0.933 -1.9501  0.6677 -2.6127
  620WAT      O 2070   3.193   4.829   1.038 -0.3372 -0.5356  0.3645
  620WAT     H1 2071   3.099   4.847   1.045  0.0840  1.6787  0.9664
  620WAT     H2 2072   3.200   4.736   1.061 -2.5633 -1.3379 -1.7251
  621WAT      O 2073   4.203   1.540   1.654 -0.1677  0.3866  0.5603
  621WAT     H1 2074   4.214   1.474   1.723  1.8233 -0.9905 -0.9484
  621WAT     H2 2075   4.246   1.618   1.689  0.6756 -0.2424  0.9799
  622WAT      O 2076   3.243   3.026   1.015  0.1121 -0.2066 -0.4004
  622WAT     H1 2077   3.196   3.064   0.941 -2.4338 -0.4576  0.9751
  622WAT     H2 2078   3.284   2.947   0.980 -2.1140 -1.0220 -1.3136
  623WAT      O 2079   3.616   0.312   3.009  0.0456  0.0155  0.1605
  623WAT     H1 2080   3.690   0.298   3.068  0.0517 -0.2500  0.0898
  623WAT     H2 2081   3.646   0.380   2.949  0.4994 -0.5888 -0.3159
  624WAT      O 2082   3.971   3.412   4.447  0.3355  0.6062 -0.4779
  624WAT     H1 2083   4.025   3.341   4.414  2.7563  2.2316 -0.2534
  624WAT     H2 2084   3.986   3.484   4.386 -0.1326  1.6730  0.6284
  625WAT      O 2085   2.586   3.459   0.777  0.4436  0.2020  0.2583
  625WAT     H1 2086   2.622   3.544   0.802  1.1604 -0.1429  0.4205
  625WAT     H2 2087   2.504   3.480   0.732  1.5523  1.0701 -1.4140
  626WAT      O 2088   4.172   3.573   1.219 -0.3417  0.1259 -0.5110
  626WAT     H1 2089   4.088   3.534   1.244 -1.4040  2.2530 -0.6226
  626WAT     H2 2090   4.237   3.513   1.256 -1.8864 -0.2799  1.7522
  627WAT      O 2091   0.711   1.909   1.474 -0.5857 -0.2557 -0.5822
  627WAT     H1 2092   0.660   1.929   1.552  0.2440  1.1603 -0.3605
  627WAT     H2 2093   0.700   1.985   1.417 -0.8202 -1.0731 -1.6651
  628WAT      O 2094   0.769   1.707   4.411 -0.7182 -0.1125 -0.4738
  628WAT     H1 2095   0.717   1.655   4.473 -1.3007 -0.7278 -1.4451
  628WAT     H2 2096   0.707   1.769   4.373 -0.2374  0.6485 -0.0412
  629WAT      O 2097   1.820   3.419   2.242 -0.1541  0.3386 -0.2338
  629WAT     H1 2098   1.769   3.359   2.296  1.2967  0.3921  1.2992
  629WAT     H2 2099   1.766   3.435   2.165 -3.2542  1.8833  2.0790
  630WAT      O 2100   3.228   3.518   0.980 -0.8260  0.0696 -0.1965
  630WAT     H1 2101   3.135   3.538   0.970 -1.6206 -2.4279  1.1269
  630WAT     H2 2102   3.259   3.580   1.045 -2.3602 -0.8353  1.5059
  631WAT      O 2103   4.704   3.841   2.816  0.6065  0.0897  0.1581
  631WAT     H1 2104   4.674   3.797   2.895 -1.2926 -1.8280 -1.5098
  631WAT     H2 2105   4.697   3.934   2.837 -2.2923 -0.3076  1.4502
  632WAT      O 2106   3.390   2.828   1.412  0.5217 -0.1674  0.7894
  632WAT     H1 2107   3.427   2.758   1.358 -0.2725  1.3874 -1.9567
  632WAT     H2 2108   3.297   2.829   1.389  0.8370  3.0461 -0.9085
  633WAT      O 2109   1.773   2.042   3.022  0.0568  0.7586  0.2277
  633WAT     H1 2110   1.792   2.053   3.115  0.8825 -1.3030  0.3452
  633WAT     H2 2111   1.854   2.068   2.978  0.0928  0.5167  0.1541
  634WAT      O 2112   1.727   1.549   0.299  0.5076  0.6032 -0.0226
  634WAT     H1 2113   1.691   1.526   0.385 -1.1423 -0.8639 -1.0231
  634WAT     H2 2114   1.676   1.626   0.272  0.5808  0.6743  0.0413
  635WAT      O 2115   0.170   1.203   3.317  0.0281  0.4106  0.2698
  635WAT     H1 2116   0.119   1.278   3.287 -0.2320  0.3589  0.5757
  635WAT     H2 2117   0.160   1.138   3.248 -0.3164  0.4047  0.3228
  636WAT      O 2118   3.230   4.014   3.293 -0.2232 -0.1259  0.2231
  636WAT     H1 2119   3.189   3.929   3.276 -4.5525  1.8748 -0.4156
  636WAT     H2 2120   3.218   4.063   3.211  0.0937  1.8513  1.3027
  637WAT      O 2121   3.246   2.532   2.081 -0.5542  0.0322 -0.2184
  637WAT     H1 2122   3.227   2.560   2.171  0.3226  1.8024 -0.5224
  637WAT     H2 2123   3.306   2.458   2.091  0.2342  0.7640  0.6801
  638WAT      O 2124   3.244   2.359   1.230  0.0792  0.2928 -0.1997
  638WAT     H1 2125   3.161   2.405   1.244 -0.8255 -0.7199 -1.9158
  638WAT     H2 2126   3.218   2.270   1.204  1.7023 -0.1091 -0.5591
  639WAT      O 2127   4.386   1.128   0.349 -0.0136 -0.4244 -0.1437
  639WAT     H1 2128   4.390   1.143   0.443 -2.8749 -1.0854  0.1692
  639WAT     H2 2129   4.432   1.045   0.336  2.1774  0.6588  0.3198
  640WAT      O 2130   4.285   2.957   3.080  0.1333 -0.1807  0.0381
  640WAT     H1 2131   4.300   2.914   3.164  0.4831 -1.0811 -0.4685
  640WAT     H2 2132   4.201   3.002   3.089 -0.1843 -0.8896  0.6147
  641WAT      O 2133   0.598   3.855   4.530  0.4173  0.3880 -0.3479
  641WAT     H1 2134   0.618   3.811   4.612 -0.2749 -0.5593 -0.6730
  641WAT     H2 2135   0.584   3.784   4.467  0.1667  1.0816 -1.0986
  642WAT      O 2136   3.269   2.749   1.033 -0.1307  0.4775  0.0047
  642WAT     H1 2137   3.248   2.785   1.119 -0.8469  0.6032 -0.2100
  642WAT     H2 2138   3.202   2.682   1.019 -2.1004  2.6338 -1.8015
  643WAT      O 2139   4.932   1.683   3.635 -0.1231 -0.2224  0.0519
  643WAT     H1 2140   4.910   1.606   3.583 -1.4447  1.2321 -1.6533
  643WAT     H2 2141   4.953   1.751   3.571 -0.9469  1.4163  1.4175
  644WAT      O 2142   3.165   1.730   0.210 -0.2875 -0.5132 -0.1952
  644WAT     H1 2143   3.135   1.821   0.206 -0.5424 -0.5924 -0.1231
  644WAT     H2 2144   3.218   1.719   0.131 -0.0935 -0.2467 -0.1053
  645WAT      O 2145   4.735   2.033   5.117  0.9877 -0.0544 -0.2048
  645WAT     H1 2146   4.755   2.126   5.130  1.1996 -0.0489 -0.5746
  645WAT     H2 2147   4.659   2.017   5.174 -0.3908  0.8600 -1.6718
  646WAT      O 2148   3.902   3.469   5.753 -0.2139  0.0423 -0.1584
  646WAT     H1 2149   3.953   3.438   5.678 -2.2116 -0.4629 -1.3960
  646WAT     H2 2150   3.876   3.558   5.729  0.0477  0.2775  0.4283
  647WAT      O 2151   0.699   2.158   1.376  0.2777  0.3668  0.3946
  647WAT     H1 2152   0.680   2.200   1.292 -0.8256 -0.5825  0.1497
  647WAT     H2 2153   0.690   2.228   1.441 -0.4873  0.7532 -0.1161
  648WAT      O 2154   4.190   3.801   1.779 -0.5868 -0.5579 -0.3795
  648WAT     H1 2155   4.214   3.734   1.843 -3.3255 -0.8084  0.5034
  648WAT     H2 2156   4.157   3.873   1.831 -0.3241  0.3559 -1.4460
  649WAT      O 2157   3.379   3.072   4.680 -0.3921  0.2146  0.4467
  649WAT     H1 2158   3.428   3.033   4.607 -1.2284  0.5084 -0.2956
  649WAT     H2 2159   3.436   3.142   4.713  0.5645 -0.7689  0.9541
  650WAT      O 2160   4.416   4.299   0.513  0.3134  0.1470  0.1366
  650WAT     H1 2161   4.334   4.271   0.471  0.1650  1.2275 -0.3324
  650WAT     H2 2162   4.395   4.299   0.607 -0.6766  1.7060 -0.0478
  651WAT      O 2163   2.646   1.213   3.282  0.2847  0.2359 -0.0570
  651WAT     H1 2164   2.678   1.159   3.209 -0.2411 -0.9381  0.5616
  651WAT     H2 2165   2.568   1.169   3.312  0.3677  0.8401  1.0865
  652WAT      O 2166   2.641   2.103   4.297  0.4195 -0.2486 -0.3403
  652WAT     H1 2167   2.548   2.123   4.301  0.7234  1.4640 -0.9343
  652WAT     H2 2168   2.670   2.102   4.388  0.4618  2.7646 -0.2380
  653WAT      O 2169   2.372   1.077   2.813 -0.5910  0.0238  0.5686
  653WAT     H1 2170   2.300   1.105   2.869  0.6584  0.5882  1.9705
  653WAT     H2 2171   2.334   1.009   2.758 -1.7167 -1.1802  2.6690
  654WAT      O 2172   1.304   3.805   0.653 -0.2914  0.0203  0.1218
  654WAT     H1 2173   1.385   3.798   0.602  0.9662 -1.0419  2.1352
  654WAT     H2 2174   1.328   3.776   0.741 -2.5538  1.0132  1.1567
  655WAT      O 2175   3.631   0.956   2.137 -0.1228 -0.2372 -0.2247
  655WAT     H1 2176   3.670   1.026   2.084 -0.0604 -1.3813 -1.7346
  655WAT     H2 2177   3.624   0.994   2.225 -0.7261  1.9139 -1.1385
  656WAT      O 2178   4.125   1.051   4.933  0.3624  0.2249  0.9897
  656WAT     H1 2179   4.195   1.054   4.868 -1.0587  1.6677 -0.5712
  656WAT     H2 2180   4.116   0.958   4.954  0.2531 -0.4254 -1.5842
  657WAT      O 2181   0.487   2.307   3.755 -0.6134  0.0108 -0.4780
  657WAT     H1 2182   0.450   2.384   3.711 -1.3669  0.1060  0.2913
  657WAT     H2 2183   0.536   2.262   3.687  0.8395  1.7827 -0.6914
  658WAT      O 2184   2.320   4.875   3.111 -0.2898 -0.0781 -0.4371
  658WAT     H1 2185   2.356   4.908   3.029  1.0595 -2.0637 -0.7185
  658WAT     H2 2186   2.312   4.952   3.167  1.9480  0.8766 -1.3177
  659WAT      O 2187   4.719   2.973   4.248  0.0504  0.3323 -0.2043
  659WAT     H1 2188   4.639   2.988   4.197 -1.5392 -1.5833  1.5579
  659WAT     H2 2189   4.688   2.964   4.338  1.9968 -2.4703  0.2926
  660WAT      O 2190   2.624   3.571   1.178  0.3800  0.1919 -0.7564
  660WAT     H1 2191   2.658   3.502   1.121 -0.4344 -1.5826  0.7712
  660WAT     H2 2192   2.666   3.554   1.263  1.6334  2.8053 -0.7579
  661WAT      O 2193   4.255   1.437   5.778 -0.5441 -0.1829 -0.2478
  661WAT     H1 2194   4.261   1.462   5.686  0.0252 -1.6366 -0.6397
  661WAT     H2 2195   4.314   1.362   5.786 -1.4202 -0.7703  1.0468
  662WAT      O 2196   0.445   3.852   3.805 -0.0115  0.4037  0.6293
  662WAT     H1 2197   0.425   3.766   3.841  0.1381 -0.4131 -1.1201
  662WAT     H2 2198   0.540   3.853   3.796 -0.0759  0.3482 -0.2163
  663WAT      O 2199   1.678   1.882   2.524 -0.5508  0.2866  0.1951
  663WAT     H1 2200   1.725   1.873   2.441 -0.6793  1.3925 -0.0150
  663WAT     H2 2201   1.682   1.795   2.564 -1.9736 -0.7558 -1.7501
  664WAT      O 2202   0.698   3.046   1.450 -0.6126  0.2107 -0.8222
  664WAT     H1 2203   0.723   2.955   1.469 -0.2795  0.0335 -2.0330
  664WAT     H2 2204   0.706   3.090   1.534  2.7315 -0.0986 -0.8513
  665WAT      O 2205   0.102   4.088   1.370 -0.3733  0.1955 -0.5608
  665WAT     H1 2206   0.184   4.050   1.338 -0.2594 -0.0034 -0.0296
  665WAT     H2 2207   0.062   4.020   1.423  0.1885  1.0459  1.0035
  666WAT      O 2208   3.726   3.319   4.393 -0.3438 -0.2449  0.1659
  666WAT     H1 2209   3.799   3.366   4.433 -0.0138 -0.8510  0.2867
  666WAT     H2 2210   3.708   3.247   4.453 -0.4314 -0.6398 -0.3311
  667WAT      O 2211   3.352   1.875   3.191 -0.4428 -0.3493 -0.1167
  667WAT     H1 2212   3.294   1.817   3.142 -2.4477  1.5312 -0.1095
  667WAT     H2 2213   3.339   1.851   3.282  1.0977 -1.9055 -0.2625
  668WAT      O 2214   4.308   4.339   2.206  0.1067 -0.9134 -0.5253
  668WAT     H1 2215   4.263   4.360   2.289  0.7274 -0.0174 -0.4141
  668WAT     H2 2216   4.242   4.291   2.156 -0.4347 -1.0629  0.2977
  669WAT      O 2217   3.973   2.360   2.086 -0.4629  0.0347 -0.0855
  669WAT     H1 2218   3.999   2.450   2.102  1.9802 -0.0621 -2.5996
  669WAT     H2 2219   3.934   2.361   1.999 -0.6115 -1.2792 -0.0572
  670WAT      O 2220   2.998   5.386   0.462  0.3477  0.2257  0.5475
  670WAT     H1 2221   2.977   5.330   0.537 -0.8592 -0.6700 -0.4116
  670WAT     H2 2222   2.913   5.420   0.434  0.8189  0.7934 -0.2267
  671WAT      O 2223   1.363   3.343   5.155 -0.0221  0.3077 -0.0887
  671WAT     H1 2224   1.435   3.406   5.160  0.2702 -0.0455  0.2538
  671WAT     H2 2225   1.332   3.335   5.245 -0.4945  0.4620 -0.2383
  672WAT      O 2226   3.833   2.839   0.159  0.2419  0.4175 -0.3652
  672WAT     H1 2227   3.790   2.777   0.101  0.8571  2.0603 -2.7171
  672WAT     H2 2228   3.761   2.895   0.191 -0.2288 -1.0636  1.3028
  673WAT      O 2229   2.689   1.370   0.937 -0.2495  0.7272 -0.3897
  673WAT     H1 2230   2.644   1.287   0.923  0.2495  0.7147 -2.0987
  673WAT     H2 2231   2.686   1.415   0.852  1.2890  1.5459 -0.0678
  674WAT      O 2232   4.167   1.142   1.692 -0.0620  0.3739 -0.0723
  674WAT     H1 2233   4.237   1.093   1.648  0.3056  1.9700 -1.3418
  674WAT     H2 2234   4.118   1.075   1.740  2.2731 -0.8092  0.8266
  675WAT      O 2235   2.801   2.704   1.483  0.3288  0.0757 -0.2228
  675WAT     H1 2236   2.711   2.734   1.493  0.3355  0.0092  0.0742
  675WAT     H2 2237   2.819   2.709   1.390  0.8142  2.3713 -0.0570
  676WAT      O 2238   2.806   4.940   2.695  0.1658 -0.5942 -0.3594
  676WAT     H1 2239   2.858   5.016   2.719 -1.1683  0.8262 -1.7880
  676WAT     H2 2240   2.806   4.940   2.599 -1.4418 -1.2517 -0.3946
  677WAT      O 2241   0.834   2.345   2.553  0.4542  0.2771  0.2736
  677WAT     H1 2242   0.887   2.266   2.543  0.5937  0.3414  0.5121
  677WAT     H2 2243   0.869   2.405   2.487  0.8445  0.4107  0.6030
  678WAT      O 2244   1.082   3.556   4.678  0.2996 -0.2153 -0.0372
  678WAT     H1 2245   1.170   3.588   4.658  0.1575  0.5825  0.5768
  678WAT     H2 2246   1.049   3.616   4.745 -0.7283 -0.4740 -0.2919
  679WAT      O 2247   4.258   1.391   4.460  0.2859 -0.0253  0.3097
  679WAT     H1 2248   4.249   1.407   4.366  2.8980  0.4307  0.0530
  679WAT     H2 2249   4.281   1.298   4.466  1.5319  0.2709  0.3427
  680WAT      O 2250   3.201   4.041   5.219 -0.0463  0.0088  0.6878
  680WAT     H1 2251   3.143   4.007   5.151 -0.6446 -0.8156  1.5790
  680WAT     H2 2252   3.146   4.102   5.269  0.8114  1.8044 -0.4473
  681WAT      O 2253   1.917   1.093   3.130 -0.1088 -0.5424 -0.0680
  681WAT     H1 2254   1.934   1.057   3.217  1.1705  1.1363  0.4434
  681WAT     H2 2255   1.885   1.182   3.147 -1.3999 -0.7329 -1.2950
  682WAT      O 2256   0.078   2.227   3.239 -1.5445  0.2713 -0.5101
  682WAT     H1 2257   0.023   2.173   3.295  0.6843 -0.9358  0.6451
  682WAT     H2 2258   0.112   2.167   3.173  0.6892  0.2000  0.5794
  683WAT      O 2259   3.270   1.926   0.032  0.3315 -0.2616  0.1922
  683WAT     H1 2260   3.177   1.922   0.007  0.6314 -0.4387 -0.9816
  683WAT     H2 2261   3.294   2.018   0.018 -0.0392  0.1325  1.9905
  684WAT      O 2262   3.542   2.954   1.868  0.2788 -0.6147  0.0880
  684WAT     H1 2263   3.574   3.028   1.919 -0.5176  0.3301 -0.7316
  684WAT     H2 2264   3.579   2.968   1.781 -0.5291 -0.7290 -0.2802
  685WAT      O 2265   3.053   4.271   3.812  0.6114  0.0521 -0.1120
  685WAT     H1 2266   3.098   4.340   3.763  0.7755  1.0794  1.4124
  685WAT     H2 2267   2.998   4.317   3.875  1.7973 -1.1442  1.9254
  686WAT      O 2268   4.028   3.392   2.028  0.0025  0.5141 -0.0112
  686WAT     H1 2269   4.048   3.308   1.986 -2.0678 -0.0518  0.0298
  686WAT     H2 2270   4.055   3.381   2.119 -0.7121 -0.3117  0.1135
  687WAT      O 2271   1.873   3.255   2.698 -0.0739 -0.0681  0.4386
  687WAT     H1 2272   1.842   3.332   2.650 -1.5641 -0.6496  0.4123
  687WAT     H2 2273   1.876   3.185   2.633 -2.2288 -0.8962  1.1350
  688WAT      O 2274   3.657   1.808   2.820  0.2090  0.7546 -0.1668
  688WAT     H1 2275   3.568   1.772   2.820  0.6263 -0.3338  0.5740
  688WAT     H2 2276   3.670   1.842   2.731 -0.5005 -0.2163 -0.6515
  689WAT      O 2277   1.117   3.262   3.722  0.3400  0.5895 -0.3943
  689WAT     H1 2278   1.153   3.323   3.786  0.5912 -0.1451  0.1891
  689WAT     H2 2279   1.026   3.250   3.749  0.2658  0.7845 -0.5634
  690WAT      O 2280   4.383   3.333   3.027  0.6144  0.1844 -0.0971
  690WAT     H1 2281   4.322   3.312   3.098 -0.8460 -0.9203 -1.5900
  690WAT     H2 2282   4.354   3.278   2.954  1.9779  1.3615 -1.5964
  691WAT      O 2283   4.087   2.679   0.083 -0.0226 -0.3047  0.1122
  691WAT     H1 2284   4.168   2.677   0.134 -0.6510 -0.9262  1.1082
  691WAT     H2 2285   4.043   2.759   0.112 -0.3254 -0.5973  0.4633
  692WAT      O 2286   3.187   1.631   0.824 -0.3990  0.6793  0.5492
  692WAT     H1 2287   3.186   1.643   0.919 -0.1823 -0.2725  0.6778
  692WAT     H2 2288   3.100   1.661   0.796 -0.9163 -0.1706  1.1971
  693WAT      O 2289   2.351   3.074   2.216  0.2106  0.8845 -0.0138
  693WAT     H1 2290   2.291   3.129   2.265 -0.1100  1.0147 -0.5419
  693WAT     H2 2291   2.296   3.004   2.181  0.5945  0.2816  0.5584
  694WAT      O 2292   0.308   2.222   4.558 -0.0524 -0.1345  0.0353
  694WAT     H1 2293   0.218   2.195   4.538  0.4583 -0.5027 -2.0261
  694WAT     H2 2294   0.320   2.302   4.507  0.1901  1.0397  1.8627
  695WAT      O 2295   4.298   3.478   2.347 -0.4605  0.0812 -0.5178
  695WAT     H1 2296   4.272   3.546   2.285  1.0583 -0.5667 -1.9250
  695WAT     H2 2297   4.345   3.526   2.416 -1.7449  0.7406 -0.0606
  696WAT      O 2298   4.565   3.193   2.605  0.2084  0.5390 -0.0421
  696WAT     H1 2299   4.551   3.220   2.515 -0.2568  1.2877  0.2507
  696WAT     H2 2300   4.609   3.267   2.646  0.1153  0.3364  0.4310
  697WAT      O 2301   3.899   3.803   2.300  0.0631  0.0717  0.0103
  697WAT     H1 2302   3.861   3.715   2.305  0.8661 -0.4219 -1.8040
  697WAT     H2 2303   3.826   3.861   2.323 -0.7980 -1.0101  0.1278
  698WAT      O 2304   4.375   2.209   4.632 -0.2014  0.0668 -0.0799
  698WAT     H1 2305   4.310   2.271   4.667  0.3345 -0.0734  1.2321
  698WAT     H2 2306   4.377   2.138   4.696  1.3948  0.1826  0.0407
  699WAT      O 2307   2.869   0.032   5.476  0.2056  0.9276 -0.3821
  699WAT     H1 2308   2.848  -0.059   5.454 -1.3820  0.3663  2.8832
  699WAT     H2 2309   2.965   0.036   5.472  0.3951 -1.2622  0.5585
  700WAT      O 2310   1.042   3.761   0.578 -0.1897 -0.8148  0.2440
  700WAT     H1 2311   1.116   3.805   0.619 -0.9479  0.0811  0.7158
  700WAT     H2 2312   1.076   3.727   0.495  1.1276 -1.8187  1.1601
  701WAT      O 2313   1.837   2.378   2.496 -0.3455 -0.2773  0.0197
  701WAT     H1 2314   1.923   2.367   2.454 -0.9434 -0.1053 -1.2946
  701WAT     H2 2315   1.854   2.436   2.570  0.4746  0.7392 -0.9327
  702WAT      O 2316   4.852   4.465   1.378  0.0917 -0.1364 -0.7814
  702WAT     H1 2317   4.757   4.454   1.378  0.3122 -2.5660  0.2060
  702WAT     H2 2318   4.887   4.376   1.381  2.3439  0.6612  2.2750
  703WAT      O 2319   3.448   0.922   5.784 -0.0578 -0.3747  0.5740
  703WAT     H1 2320   3.531   0.956   5.749 -0.0049 -1.6138 -0.5517
  703WAT     H2 2321   3.474   0.866   5.857  0.1212 -0.9382  0.0831
  704WAT      O 2322   1.385   1.450   4.238 -0.1846 -0.2503 -0.5796
  704WAT     H1 2323   1.363   1.399   4.160 -2.2916  0.0594 -0.2456
  704WAT     H2 2324   1.345   1.536   4.223  1.1814  0.5104 -0.0445
  705WAT      O 2325   3.560   3.320   1.725 -0.2252  0.0617 -0.0971
  705WAT     H1 2326   3.534   3.346   1.636  0.9489 -0.1211 -0.5108
  705WAT     H2 2327   3.500   3.368   1.782 -0.0170  1.3849 -0.9454
  706WAT      O 2328   4.394   3.233   0.260 -0.5270 -0.0826 -0.0666
  706WAT     H1 2329   4.386   3.227   0.356 -0.5699  0.1079 -0.0564
  706WAT     H2 2330   4.311   3.198   0.228 -0.7449  0.3754 -0.0133
  707WAT      O 2331   4.332   1.466   1.394  0.4996  0.4561  0.2979
  707WAT     H1 2332   4.303   1.549   1.355  0.5540  0.9710  1.3217
  707WAT     H2 2333   4.300   1.470   1.484 -1.0162 -1.3968 -0.0857
  708WAT      O 2334   2.066   0.871   5.281  0.2540  0.5153 -0.5231
  708WAT     H1 2335   1.980   0.829   5.276  0.5537 -0.2456  0.3145
  708WAT     H2 2336   2.122   0.816   5.226  0.4564  0.3315 -0.1345
  709WAT      O 2337   3.781   1.522   5.024  0.0145 -0.0037  0.9730
  709WAT     H1 2338   3.851   1.563   5.075 -1.2645  2.1547  1.0666
  709WAT     H2 2339   3.756   1.588   4.960 -2.1350 -0.6139  1.1251
  710WAT      O 2340   0.159   2.554   5.478 -0.6664  0.0075 -0.3930
  710WAT     H1 2341   0.148   2.583   5.568 -1.0684  0.7921 -0.6858
  710WAT     H2 2342   0.092   2.601   5.429 -0.8536 -0.8756 -1.0137
  711WAT      O 2343   0.397   3.912   1.406 -0.2299 -0.3489 -0.1554
  711WAT     H1 2344   0.487   3.903   1.377 -0.1294  0.6534 -0.1912
  711WAT     H2 2345   0.399   3.888   1.499  0.5987  2.1406  0.5353
  712WAT      O 2346   4.061   3.922   5.246 -0.3639 -0.1681  0.3543
  712WAT     H1 2347   4.088   4.014   5.253  0.7700 -0.5897  2.0252
  712WAT     H2 2348   4.121   3.884   5.183  1.1923 -0.4345  1.9327
  713WAT      O 2349   0.879   3.559   1.580 -0.2136 -0.1118 -0.7834
  713WAT     H1 2350   0.796   3.591   1.544 -0.7030 -0.7617 -0.2305
  713WAT     H2 2351   0.903   3.625   1.646  0.2086  0.5827 -1.6064
  714WAT      O 2352   2.462   3.909   0.596 -0.9070  0.1871 -0.2206
  714WAT     H1 2353   2.548   3.880   0.567 -0.7140  0.4552  0.0777
  714WAT     H2 2354   2.401   3.869   0.534 -0.4621  1.2764 -1.4168
  715WAT      O 2355   2.095   2.539   0.958  0.0096 -0.4847  0.4082
  715WAT     H1 2356   2.156   2.516   0.887 -0.4477 -0.6887  0.0780
  715WAT     H2 2357   2.036   2.464   0.964 -0.9891  0.2364 -0.1237
  716WAT      O 2358   3.190   2.843   3.837  0.0263 -0.1312  0.2128
  716WAT     H1 2359   3.105   2.884   3.829  0.6418  1.1155 -0.0847
  716WAT     H2 2360   3.188   2.800   3.923  0.0450  2.1633  1.4313
  717WAT      O 2361   2.749   5.084   5.782 -0.3689 -0.2488 -0.5741
  717WAT     H1 2362   2.743   5.157   5.722  1.6672  1.4035  1.1001
  717WAT     H2 2363   2.674   5.095   5.841  0.5771  1.2651  0.4056
  718WAT      O 2364   0.151   2.906   5.616  0.2739  0.2246  0.6109
  718WAT     H1 2365   0.210   2.872   5.548  0.9373  0.5250  1.0240
  718WAT     H2 2366   0.204   2.971   5.662  0.0117 -0.3429  1.7464
  719WAT      O 2367   3.595   3.891   0.807  0.2015 -0.2176 -0.0597
  719WAT     H1 2368   3.657   3.962   0.789 -0.0082 -0.0467 -0.1121
  719WAT     H2 2369   3.541   3.925   0.879 -0.8793  0.2805 -1.0764
  720WAT      O 2370   0.340   3.540   5.196 -0.5512  0.7413 -0.2740
  720WAT     H1 2371   0.343   3.636   5.190 -2.5240  0.9942  1.6460
  720WAT     H2 2372   0.372   3.521   5.284 -0.2090 -0.4046 -0.6259
  721WAT      O 2373   0.270   4.301   1.128 -0.0610 -0.2846  0.0196
  721WAT     H1 2374   0.234   4.366   1.188 -1.6159 -1.0199 -0.0483
  721WAT     H2 2375   0.195   4.276   1.073  0.5167 -2.0193 -0.0306
  722WAT      O 2376   3.822   3.437   1.716  0.1593  0.2354 -0.4726
  722WAT     H1 2377   3.819   3.465   1.624  2.2216 -1.5691 -1.1777
  722WAT     H2 2378   3.734   3.406   1.735 -0.2202  0.3219 -1.9573
  723WAT      O 2379   1.679   4.896   0.094  0.0312  0.0635  0.4661
  723WAT     H1 2380   1.697   4.916   0.002 -0.2922  1.2333  0.6487
  723WAT     H2 2381   1.689   4.979   0.139 -1.4870 -0.1465  1.2415
  724WAT      O 2382   2.493   2.720   1.029 -0.6023 -0.3403  0.3550
  724WAT     H1 2383   2.443   2.658   0.976 -1.3394 -1.6876  2.4755
  724WAT     H2 2384   2.429   2.754   1.092  0.8876 -1.4422  2.5835
  725WAT      O 2385   3.266   4.663   5.572 -0.9215 -0.5090  0.0679
  725WAT     H1 2386   3.311   4.733   5.525  0.2315 -2.0300 -1.1980
  725WAT     H2 2387   3.263   4.694   5.663 -2.0955  1.9454 -0.7163
  726WAT      O 2388   0.557   2.941   1.028  0.4898  0.4681 -0.7949
  726WAT     H1 2389   0.523   2.919   0.942 -0.3431  3.5891 -1.3815
  726WAT     H2 2390   0.644   2.978   1.011  1.0073 -0.3538 -0.0785
  727WAT      O 2391   1.869   3.910   4.995 -0.3298  0.0585  0.2942
  727WAT     H1 2392   1.948   3.884   5.043 -0.6361 -0.5813  0.4657
  727WAT     H2 2393   1.797   3.876   5.048 -0.6802 -0.5731 -0.5554
  728WAT      O 2394   2.008   2.736   1.828  0.2613  0.2732  0.6962
  728WAT     H1 2395   1.922   2.731   1.786 -0.0677  1.3578  1.2029
  728WAT     H2 2396   2.056   2.662   1.792  0.3967  1.6907 -2.4795
  729WAT      O 2397   3.908   3.104   1.332  0.0270  0.8094 -0.1700
  729WAT     H1 2398   3.935   3.017   1.359 -1.6819  0.4719  0.5711
  729WAT     H2 2399   3.822   3.092   1.292 -0.1229  2.1156 -0.2982
  730WAT      O 2400   3.729   4.550   2.173  0.4691  0.3095 -0.2282
  730WAT     H1 2401   3.824   4.559   2.186  0.1259  1.7929  1.6204
  730WAT     H2 2402   3.692   4.631   2.209 -1.3706  0.8049 -2.9201
  731WAT      O 2403   0.011   2.876   1.368  0.8214  0.0605  0.4588
  731WAT     H1 2404   0.054   2.866   1.283  0.9370  0.4830  0.4632
  731WAT     H2 2405  -0.053   2.805   1.371  0.9725 -0.0927  0.1141
  732WAT      O 2406   1.864   2.428   0.407 -0.4057  0.2464 -0.2411
  732WAT     H1 2407   1.940   2.386   0.367 -1.5132  0.2210 -2.4908
  732WAT     H2 2408   1.817   2.468   0.334 -1.0576  2.7700  1.4241
  733WAT      O 2409   4.808   4.286   1.667 -0.2859 -0.2547  0.4900
  733WAT     H1 2410   4.875   4.230   1.704  0.1274 -0.3101 -0.3167
  733WAT     H2 2411   4.737   4.226   1.644 -0.1888 -0.3380  0.4040
  734WAT      O 2412   2.132   4.512   1.435  0.6378 -0.1525  0.1418
  734WAT     H1 2413   2.149   4.434   1.382 -0.4800  0.2503 -0.8674
  734WAT     H2 2414   2.105   4.579   1.371 -2.4176 -0.1149  1.2752
  735WAT      O 2415   0.322   3.232   3.354 -0.8644 -0.1611 -0.1530
  735WAT     H1 2416   0.340   3.150   3.399 -1.8274 -0.7447 -0.7972
  735WAT     H2 2417   0.309   3.207   3.263  0.3008  0.9076 -0.6360
  736WAT      O 2418   3.364   0.100   0.076  0.3391 -0.2165  0.1041
  736WAT     H1 2419   3.279   0.143   0.079  1.4930  2.1689  0.9604
  736WAT     H2 2420   3.368   0.059  -0.011 -1.0477  1.0104 -0.5712
  737WAT      O 2421   3.315   1.366   1.762  0.0809 -0.4973  0.1026
  737WAT     H1 2422   3.237   1.421   1.759  0.0509 -0.5845 -0.8675
  737WAT     H2 2423   3.382   1.422   1.801 -0.6887 -0.7268  1.8733
  738WAT      O 2424   1.679   1.368   3.664 -0.4541 -0.2969 -0.3041
  738WAT     H1 2425   1.726   1.296   3.621 -0.6397 -0.8806  0.4501
  738WAT     H2 2426   1.660   1.335   3.751  0.1914  0.9785  0.3496
  739WAT      O 2427   4.499   4.496   1.593 -0.6404  0.5221 -0.6336
  739WAT     H1 2428   4.584   4.535   1.614  0.6863 -1.2436 -2.4018
  739WAT     H2 2429   4.436   4.561   1.622  1.3332  2.3971 -0.2582
  740WAT      O 2430   2.551   4.146   5.682  0.4698  0.5634  0.0903
  740WAT     H1 2431   2.545   4.168   5.589 -3.4401  2.2304  0.5253
  740WAT     H2 2432   2.537   4.051   5.685 -2.0947  0.8284 -1.0071
  741WAT      O 2433   4.185   0.953   0.791 -0.7316 -0.6068  0.5184
  741WAT     H1 2434   4.117   0.897   0.828 -2.6286  0.0073 -1.7983
  741WAT     H2 2435   4.139   1.032   0.763  1.0199  0.0442 -0.7349
  742WAT      O 2436   3.452   3.874   0.436  0.0100  0.3265  0.9461
  742WAT     H1 2437   3.531   3.820   0.446  0.0530  0.0155 -0.8172
  742WAT     H2 2438   3.400   3.855   0.514 -0.0766 -2.4602  0.3028
  743WAT      O 2439   0.350   3.981   4.566 -0.2513  0.2464 -0.0505
  743WAT     H1 2440   0.421   3.917   4.571 -1.5864 -1.2406  0.8330
  743WAT     H2 2441   0.281   3.937   4.516 -1.3294  0.8452  0.8533
  744WAT      O 2442   0.927   2.484   1.325  0.3786  0.8008  0.1520
  744WAT     H1 2443   0.857   2.430   1.360  0.3964  0.8301  0.2330
  744WAT     H2 2444   0.888   2.571   1.316  0.7494  1.1099  1.3449
  745WAT      O 2445   3.822   1.659   5.639 -0.4331 -0.0587 -0.5404
  745WAT     H1 2446   3.823   1.684   5.732 -1.1984 -1.1588 -0.2130
  745WAT     H2 2447   3.898   1.703   5.602 -0.2709  0.6314  0.5455
  746WAT      O 2448   1.974   3.222   0.584  0.4725 -0.3996 -0.2512
  746WAT     H1 2449   2.013   3.182   0.506  0.1828 -0.5293 -0.3292
  746WAT     H2 2450   2.013   3.174   0.657  3.5588  2.0412 -0.0824
  747WAT      O 2451   2.633   3.390   2.226  0.4863 -0.0081 -0.0555
  747WAT     H1 2452   2.698   3.460   2.222 -0.4594  0.9080  0.0403
  747WAT     H2 2453   2.578   3.413   2.301 -0.9430  0.1775 -1.1103
  748WAT      O 2454   4.567   1.617   4.141  0.2624  0.0877  0.1368
  748WAT     H1 2455   4.519   1.663   4.209  0.7142 -0.3101  0.7382
  748WAT     H2 2456   4.659   1.631   4.164  0.4105 -1.2135  0.4183
  749WAT      O 2457   3.369   2.384   5.599  0.0210  0.2602  0.1640
  749WAT     H1 2458   3.378   2.452   5.667  0.0501  1.8601 -1.3651
  749WAT     H2 2459   3.324   2.428   5.527 -0.5390 -1.5617 -0.6577
  750WAT      O 2460   1.755   4.005   5.376  0.4219 -0.3514  0.0163
  750WAT     H1 2461   1.715   4.087   5.347  1.4685  0.0627 -0.3029
  750WAT     H2 2462   1.752   4.009   5.471  0.1979 -0.0868 -0.0004
  751WAT      O 2463   3.867   4.549   2.497 -0.3933  0.3739  0.5821
  751WAT     H1 2464   3.798   4.484   2.505 -0.9503  0.8861  0.0510
  751WAT     H2 2465   3.842   4.618   2.558  0.2575  0.0542  1.2314
  752WAT      O 2466   3.841   1.687   4.097 -0.0257  0.0716  0.2825
  752WAT     H1 2467   3.855   1.779   4.119 -0.7095 -0.2477  2.3039
  752WAT     H2 2468   3.763   1.686   4.043  0.9829  0.8052 -1.2483
  753WAT      O 2469   2.488   2.429   4.571  0.6450  0.3452 -0.8424
  753WAT     H1 2470   2.473   2.522   4.590 -0.8687  0.1645 -1.0275
  753WAT     H2 2471   2.578   2.425   4.539  1.7873  1.3242  1.9132
  754WAT      O 2472   1.751   3.796   4.187  0.0179 -0.2047 -0.5948
  754WAT     H1 2473   1.729   3.785   4.094 -4.1462  1.9175 -0.0633
  754WAT     H2 2474   1.701   3.728   4.231  0.2076  0.2170  0.2775
  755WAT      O 2475   2.392   1.925   2.374  0.0848  0.3158  0.0701
  755WAT     H1 2476   2.349   1.871   2.440 -0.0293  0.5594  0.1982
  755WAT     H2 2477   2.326   1.938   2.307  0.3320 -0.2718 -0.2915
  756WAT      O 2478   4.123   4.709   3.099 -0.0245 -0.8526 -1.0436
  756WAT     H1 2479   4.108   4.624   3.058  0.6754 -1.0659 -0.8749
  756WAT     H2 2480   4.107   4.772   3.030 -0.3615 -1.1293 -1.2234
  757WAT      O 2481   4.040   5.017   5.257  0.0432  0.3257 -0.2471
  757WAT     H1 2482   4.096   4.949   5.220 -0.8040 -0.6597  0.2358
  757WAT     H2 2483   4.018   4.984   5.345  1.9188  2.5273  1.1659
  758WAT      O 2484   4.758   1.324   2.120  0.0845  0.1885  0.5446
  758WAT     H1 2485   4.682   1.272   2.094  1.3508 -1.7441  0.5175
  758WAT     H2 2486   4.765   1.312   2.215  0.7200 -0.1767  0.4563
  759WAT      O 2487   0.590   2.674   2.355 -0.0080  0.1326  0.0114
  759WAT     H1 2488   0.534   2.736   2.402 -1.6517 -1.6942  0.5826
  759WAT     H2 2489   0.678   2.689   2.392 -0.3190  2.1818  0.0185
  760WAT      O 2490   3.894   5.425   0.047  0.5266  0.6766  0.2937
  760WAT     H1 2491   3.849   5.417   0.132  1.0902 -0.9827  0.4742
  760WAT     H2 2492   3.854   5.358  -0.007  1.8163  0.1001  0.0229
  761WAT      O 2493   0.614   1.718   5.467  0.4669  0.3075 -0.4602
  761WAT     H1 2494   0.653   1.774   5.534 -0.2858  0.3507 -0.0410
  761WAT     H2 2495   0.678   1.717   5.396 -0.2252  3.1304 -1.2380
  762WAT      O 2496   1.296   2.267   1.243 -0.3842 -0.0947  0.3633
  762WAT     H1 2497   1.248   2.259   1.161 -0.9225 -0.2463  0.6856
  762WAT     H2 2498   1.348   2.186   1.249 -2.1792 -1.2345  1.3166
  763WAT      O 2499   2.831   2.541   2.415  0.0628 -0.7127 -0.2276
  763WAT     H1 2500   2.742   2.575   2.413  0.3487  0.0285 -0.4736
  763WAT     H2 2501   2.839   2.498   2.501  0.2162  1.2619  0.8028
  764WAT      O 2502   1.260   3.090   1.225 -0.5369  0.6893  0.4910
  764WAT     H1 2503   1.301   3.084   1.138 -0.7358  0.9329  0.3748
  764WAT     H2 2504   1.181   3.142   1.209 -0.5074  0.8436  0.8422
  765WAT      O 2505   4.417   3.957   3.305 -0.1517  0.0923 -0.6470
  765WAT     H1 2506   4.439   4.032   3.250  0.9402 -1.0018 -1.7860
  765WAT     H2 2507   4.473   3.967   3.382 -0.3548  0.6845 -0.5718
  766WAT      O 2508   2.306   2.814   5.081 -0.2317 -0.0854  0.1239
  766WAT     H1 2509   2.299   2.850   4.992 -1.3106  0.5586  0.4592
  766WAT     H2 2510   2.216   2.792   5.105 -0.4007  2.4735  2.1868
  767WAT      O 2511   3.947   0.158   4.729  0.3270 -0.1193  0.7485
  767WAT     H1 2512   3.935   0.248   4.759 -0.7259 -0.4564  1.3908
  767WAT     H2 2513   3.859   0.126   4.711  0.7116 -0.9238  0.1917
  768WAT      O 2514   1.036   2.764   2.203 -0.0588  0.0735  0.0414
  768WAT     H1 2515   0.972   2.700   2.172  0.0432  0.0627 -0.1477
  768WAT     H2 2516   0.985   2.843   2.221  0.0675  0.5160 -1.4386
  769WAT      O 2517   1.657   1.504   5.698 -0.1918 -0.4563 -0.1394
  769WAT     H1 2518   1.633   1.433   5.756  0.0129  0.5554  1.2240
  769WAT     H2 2519   1.717   1.465   5.635  0.3230 -1.3732  0.9069
  770WAT      O 2520   0.713   1.278   2.469  0.1163  0.7056  0.4151
  770WAT     H1 2521   0.712   1.193   2.514 -2.0883 -0.1958 -1.0976
  770WAT     H2 2522   0.805   1.305   2.470  0.8079 -1.4332  1.4279
  771WAT      O 2523   3.536   1.371   2.267 -0.6195  0.7027 -0.1777
  771WAT     H1 2524   3.556   1.289   2.312 -2.9093 -0.3576 -0.9138
  771WAT     H2 2525   3.544   1.439   2.335  2.9543  0.1969  0.0650
  772WAT      O 2526   0.195   3.613   0.536  0.3422 -0.0995 -0.2906
  772WAT     H1 2527   0.262   3.676   0.512 -0.9444  0.5968 -2.2682
  772WAT     H2 2528   0.134   3.613   0.462 -1.8975 -0.6159  1.4431
  773WAT      O 2529   3.373   0.035   5.641 -0.1862  0.0982 -0.1677
  773WAT     H1 2530   3.285   0.027   5.603  0.6944 -1.0340 -2.1113
  773WAT     H2 2531   3.425   0.075   5.572  1.1041 -0.3482  0.5144
  774WAT      O 2532   1.385   1.089   3.955 -0.0785 -0.3932 -0.0996
  774WAT     H1 2533   1.361   1.007   3.999  0.0117  0.3276  1.3584
  774WAT     H2 2534   1.437   1.061   3.880 -0.8091 -1.7084 -0.1491
  775WAT      O 2535   0.971   3.939   2.203  0.4120  0.5167  0.9945
  775WAT     H1 2536   0.942   3.876   2.268  1.0732 -1.4637 -0.5181
  775WAT     H2 2537   0.996   4.017   2.253 -0.0361 -0.5577  2.9688
  776WAT      O 2538   3.222   4.233   4.151  0.3678 -0.3629 -0.1905
  776WAT     H1 2539   3.220   4.302   4.085  0.9834  0.1032  0.2686
  776WAT     H2 2540   3.135   4.234   4.190  0.2666 -0.0743 -0.4180
  777WAT      O 2541   0.368   2.382   5.802  0.1940 -0.3313  0.0717
  777WAT     H1 2542   0.369   2.392   5.897 -1.3601  3.3004 -0.1697
  777WAT     H2 2543   0.386   2.470   5.768 -1.2724 -1.0905 -2.9897
  778WAT      O 2544   3.490   5.349   1.073 -0.7125 -0.7278  0.4226
  778WAT     H1 2545   3.488   5.345   1.169  1.7884  0.5274  0.5949
  778WAT     H2 2546   3.509   5.441   1.053 -2.6882 -0.6179 -1.3858
  779WAT      O 2547   3.697   5.226   3.875  0.2583 -0.5202  0.0274
  779WAT     H1 2548   3.704   5.167   3.800 -2.3487 -2.9204  1.4759
  779WAT     H2 2549   3.607   5.257   3.874  0.6895  0.9232  1.1550
  780WAT      O 2550   4.339   2.963   0.750 -0.3275 -0.1024  0.5327
  780WAT     H1 2551   4.340   2.945   0.844 -1.2818  0.2482  0.6257
  780WAT     H2 2552   4.290   2.889   0.712 -1.0937  0.4284  0.4776
  781WAT      O 2553   3.565   2.594   1.896 -0.3598  0.3952  0.0414
  781WAT     H1 2554   3.591   2.506   1.922 -0.5601  0.6975  1.2933
  781WAT     H2 2555   3.579   2.648   1.974 -2.0956  1.1111 -0.1108
  782WAT      O 2556   1.131   1.998   0.277  0.5754 -0.3188  0.5756
  782WAT     H1 2557   1.211   2.020   0.325  1.8338 -1.1834 -1.0492
  782WAT     H2 2558   1.157   1.928   0.218 -1.1082  0.1622 -0.8034
  783WAT      O 2559   2.821   2.103   0.164 -0.0412  0.0757  0.0784
  783WAT     H1 2560   2.804   2.009   0.157  1.1427 -0.0535 -2.0498
  783WAT     H2 2561   2.739   2.144   0.138 -0.6784 -0.3401  1.3720
  784WAT      O 2562   2.490   3.605   5.581 -0.0303  0.6815 -0.2983
  784WAT     H1 2563   2.527   3.620   5.494  1.4026  1.4479  0.3959
  784WAT     H2 2564   2.548   3.539   5.621 -0.7116  0.2856  0.0553
  785WAT      O 2565   1.015   2.107   5.463 -0.0386  0.6081  0.6158
  785WAT     H1 2566   0.981   2.109   5.553  0.5117  0.9426  0.8219
  785WAT     H2 2567   0.938   2.123   5.408  0.1153  4.1891  1.1650
  786WAT      O 2568   2.846   3.241   0.160 -0.0833 -0.6490 -0.0826
  786WAT     H1 2569   2.891   3.242   0.075 -1.3624  0.1963 -0.7815
  786WAT     H2 2570   2.906   3.287   0.218  1.1376 -1.8615 -0.3221
  787WAT      O 2571   3.991   3.553   3.092 -0.1319 -0.4049  0.1471
  787WAT     H1 2572   3.988   3.648   3.098 -1.7892 -0.4345  0.2685
  787WAT     H2 2573   4.083   3.531   3.108  0.0861  1.1041  1.2227
  788WAT      O 2574   2.393   2.371   5.528  0.4011  0.3007  0.2934
  788WAT     H1 2575   2.329   2.439   5.552  0.4837  0.1877  0.8521
  788WAT     H2 2576   2.475   2.418   5.517  0.2637  0.4239 -0.2708
  789WAT      O 2577   4.335   3.371   2.711  0.2492 -0.0943 -0.3612
  789WAT     H1 2578   4.344   3.286   2.669 -1.4922 -0.8318  0.6564
  789WAT     H2 2579   4.425   3.402   2.721  0.8248 -0.5821 -3.1008
  790WAT      O 2580   3.956   3.776   2.609 -0.1997  0.6224  0.3779
  790WAT     H1 2581   3.972   3.815   2.523 -0.5918  1.3160  0.6113
  790WAT     H2 2582   4.043   3.758   2.644 -0.0303  0.7651  0.0308
  791WAT      O 2583   3.880   4.259   4.519  0.2247  0.3017 -0.6838
  791WAT     H1 2584   3.885   4.205   4.440  0.7640 -0.8671  0.1248
  791WAT     H2 2585   3.791   4.246   4.551  1.0985 -2.2939  0.9534
  792WAT      O 2586   3.456   1.671   1.507  0.3668  0.4023 -0.0294
  792WAT     H1 2587   3.444   1.693   1.600  0.5857  1.5507 -0.2499
  792WAT     H2 2588   3.546   1.697   1.487 -0.1493  1.6361 -0.9198
  793WAT      O 2589   3.451   0.096   0.536  0.2019 -0.4374  0.5814
  793WAT     H1 2590   3.361   0.119   0.512  1.0885  2.5774 -0.3617
  793WAT     H2 2591   3.454   0.108   0.631 -0.4276 -0.8191  0.6581
  794WAT      O 2592   3.396   2.699   0.443 -0.6802  0.1327  0.5008
  794WAT     H1 2593   3.458   2.666   0.509 -0.0291 -1.4444 -0.8366
  794WAT     H2 2594   3.311   2.666   0.472 -0.2158 -1.7067 -0.1128
  795WAT      O 2595   3.558   2.967   2.685 -0.0585  0.3928 -0.0233
  795WAT     H1 2596   3.611   2.892   2.658  1.0717  0.5158  1.6926
  795WAT     H2 2597   3.539   3.014   2.604  0.7336 -0.7500 -0.9115
  796WAT      O 2598   0.478   2.209   3.045  0.0067  0.2584 -0.4775
  796WAT     H1 2599   0.500   2.121   3.075  1.3981  1.0279  0.9626
  796WAT     H2 2600   0.530   2.221   2.966  1.3272  0.4012  0.3637
  797WAT      O 2601   2.635   4.802   3.946 -0.4740  0.1007  0.2985
  797WAT     H1 2602   2.571   4.848   3.891  0.5339 -0.3795 -1.3732
  797WAT     H2 2603   2.719   4.841   3.922  0.3489 -2.1368 -0.7660
  798WAT      O 2604   1.765   2.197   2.271 -0.1619  0.5909  0.4103
  798WAT     H1 2605   1.821   2.248   2.329  0.8129  0.3791 -0.3254
  798WAT     H2 2606   1.816   2.187   2.191 -0.9823 -0.1894 -0.0319
  799WAT      O 2607   4.464   3.487   1.258  0.0260  0.4407  0.3765
  799WAT     H1 2608   4.519   3.507   1.182 -0.0371  2.0245  0.7258
  799WAT     H2 2609   4.499   3.403   1.290 -0.5519 -0.7691 -1.9042
  800WAT      O 2610   0.598   2.858   1.946  0.3027 -0.1731 -0.6098
  800WAT     H1 2611   0.509   2.892   1.955  0.0746 -0.4175 -1.7889
  800WAT     H2 2612   0.596   2.806   1.866  1.2668 -0.9864 -0.1262
  801WAT      O 2613   0.824   1.563   2.514 -0.1798  0.0192 -0.0093
  801WAT     H1 2614   0.889   1.623   2.551 -1.1670  0.9299  0.2635
  801WAT     H2 2615   0.746   1.575   2.568 -1.8210  1.7186 -2.5707
  802WAT      O 2616   3.444   1.845   5.435 -0.1080 -0.7132 -0.3502
  802WAT     H1 2617   3.453   1.751   5.452  0.5289 -0.6492 -0.3031
  802WAT     H2 2618   3.516   1.865   5.376 -0.7826 -0.4242 -1.0821
  803WAT      O 2619   4.924   1.720   3.110 -0.1813  0.0250 -0.8400
  803WAT     H1 2620   5.000   1.768   3.144 -0.2795  1.0642 -2.0091
  803WAT     H2 2621   4.938   1.717   3.015 -3.1371  3.2079 -1.5895
  804WAT      O 2622   0.696   3.924   0.705 -0.0593  0.3707 -0.3976
  804WAT     H1 2623   0.621   3.978   0.731 -1.2549 -1.0495 -0.7788
  804WAT     H2 2624   0.769   3.962   0.754 -1.1327  1.3810  0.5219
  805WAT      O 2625   4.024   3.141   4.972  0.2725 -0.1580  0.1692
  805WAT     H1 2626   4.086   3.211   4.951 -0.0868  0.2472  0.4432
  805WAT     H2 2627   3.975   3.174   5.048  0.2482 -0.7988  0.4415
  806WAT      O 2628   0.629   3.253   1.020  0.1677  0.0057 -0.3414
  806WAT     H1 2629   0.595   3.342   1.028  0.0437  0.1437 -2.0271
  806WAT     H2 2630   0.677   3.238   1.102  0.9703  1.9436 -0.3987
  807WAT      O 2631   2.382   2.712   1.305 -0.2329 -0.4789  0.2979
  807WAT     H1 2632   2.422   2.756   1.380  0.6956 -0.4286 -0.2124
  807WAT     H2 2633   2.393   2.619   1.324  0.1987 -0.4649  0.1283
  808WAT      O 2634   3.709   1.739   1.417 -0.3430  0.2641  0.4367
  808WAT     H1 2635   3.721   1.714   1.325 -0.4859 -0.8807  0.7096
  808WAT     H2 2636   3.788   1.708   1.460  0.0058  1.3633  0.6064
  809WAT      O 2637   0.066   4.617   1.199  0.2923 -0.3386 -0.3086
  809WAT     H1 2638  -0.000   4.570   1.248 -0.5092 -0.5416 -1.5292
  809WAT     H2 2639   0.051   4.709   1.219 -0.9014 -0.3224 -1.1883
  810WAT      O 2640   2.545   3.215   4.827  0.4229  0.8994  0.3753
  810WAT     H1 2641   2.478   3.193   4.761  1.4655 -0.4174 -0.2885
  810WAT     H2 2642   2.506   3.286   4.878 -1.0196  0.9347 -0.7185
  811WAT      O 2643   0.872   3.978   5.393 -0.7023 -0.0004 -0.1554
  811WAT     H1 2644   0.920   3.927   5.328  0.2823  1.8780 -1.0117
  811WAT     H2 2645   0.781   3.976   5.363 -0.4217  0.0049 -1.0441
  812WAT      O 2646   1.875   3.008   5.142  0.1566  0.6403 -0.0424
  812WAT     H1 2647   1.852   3.033   5.052 -1.0613  0.0816  0.0882
  812WAT     H2 2648   1.793   3.015   5.190  0.2077 -1.4941  0.4653
  813WAT      O 2649   1.207   1.320   0.191 -0.3179  0.0303  0.3715
  813WAT     H1 2650   1.228   1.229   0.208  2.1406  0.7906  1.9962
  813WAT     H2 2651   1.124   1.334   0.236 -3.3833 -2.4213 -3.8528
  814WAT      O 2652   4.032   1.054   5.829  0.0751  0.1246  0.1840
  814WAT     H1 2653   3.996   1.140   5.853  0.0944  0.0178  0.6009
  814WAT     H2 2654   4.125   1.060   5.853 -0.4558 -0.9814  2.9759
  815WAT      O 2655   3.011   2.437   0.675  0.5971 -0.1602 -0.4225
  815WAT     H1 2656   3.051   2.428   0.589 -0.2888  0.5728 -0.9385
  815WAT     H2 2657   2.997   2.531   0.685 -0.4104 -0.3405 -0.0078
  816WAT      O 2658   3.150   1.574   1.700  0.3169 -0.6893  0.2240
  816WAT     H1 2659   3.142   1.669   1.693 -1.3011 -0.8596 -0.9091
  816WAT     H2 2660   3.161   1.543   1.610 -1.0414 -1.6610  0.3415
  817WAT      O 2661   4.250   2.985   5.726 -0.2102  0.3220  0.7654
  817WAT     H1 2662   4.338   3.020   5.736  0.3888 -0.8640 -0.2100
  817WAT     H2 2663   4.202   3.020   5.802  0.9400  1.3860  1.0399
  818WAT      O 2664   4.536   4.193   1.749 -0.4101  0.5661  0.3388
  818WAT     H1 2665   4.534   4.287   1.733  0.4191  0.2098 -2.2671
  818WAT     H2 2666   4.466   4.157   1.695 -1.7101 -0.2367  2.4482
  819WAT      O 2667   0.273   3.697   4.832 -0.7813 -0.3619 -0.2402
  819WAT     H1 2668   0.350   3.662   4.877 -0.4325  0.2606 -0.3529
  819WAT     H2 2669   0.220   3.735   4.902 -0.2795  0.5290 -0.3363
  820WAT      O 2670   4.287   2.270   0.730 -0.1757 -0.3803  0.0121
  820WAT     H1 2671   4.269   2.225   0.647 -2.2762  1.7258 -0.8034
  820WAT     H2 2672   4.370   2.315   0.715  0.7377 -1.9572  0.0105
  821WAT      O 2673   4.454   2.805   2.293  1.0566  0.1581 -0.2484
  821WAT     H1 2674   4.533   2.786   2.243  0.4122 -2.5674 -0.3473
  821WAT     H2 2675   4.384   2.800   2.228  0.6712  1.9844 -0.0456
  822WAT      O 2676   2.902   4.950   0.984 -0.0535 -0.0623 -0.1058
  822WAT     H1 2677   2.942   5.022   0.936 -0.7648  1.2594  1.2115
  822WAT     H2 2678   2.829   4.923   0.929 -1.0069  1.5874  0.2855
  823WAT      O 2679   0.838   2.316   4.798  0.3991  0.0430 -0.3478
  823WAT     H1 2680   0.807   2.361   4.719 -1.4993  1.8835  1.3078
  823WAT     H2 2681   0.907   2.373   4.832  1.8822 -1.2375 -1.1350
  824WAT      O 2682   3.841   5.046   2.995 -0.5570  0.1592 -0.1364
  824WAT     H1 2683   3.892   4.985   3.049 -0.8935 -0.7311 -0.7839
  824WAT     H2 2684   3.798   5.104   3.058 -1.8467 -1.5597  0.6830
  825WAT      O 2685   1.911   2.447   2.034  0.0819 -0.1265  0.3752
  825WAT     H1 2686   1.818   2.450   2.012  0.0956  1.6987  0.4084
  825WAT     H2 2687   1.937   2.357   2.015 -0.8497  0.2143 -3.0385
  826WAT      O 2688   4.824   3.317   5.164 -0.5105  0.3367  0.0334
  826WAT     H1 2689   4.855   3.264   5.090  1.4483  1.5624 -0.0985
  826WAT     H2 2690   4.885   3.297   5.235  1.4652  3.5446 -0.5209
  827WAT      O 2691   3.657   4.817   0.182 -0.2270  0.2928 -0.3046
  827WAT     H1 2692   3.623   4.893   0.136 -1.2282 -1.2907 -2.3652
  827WAT     H2 2693   3.583   4.787   0.236  0.8094  1.8917  2.1778
  828WAT      O 2694   3.810   3.735   5.633  0.7691 -0.6008 -0.1351
  828WAT     H1 2695   3.749   3.759   5.702  1.4570 -2.3275  1.1436
  828WAT     H2 2696   3.823   3.816   5.584 -0.9604  0.2925  0.7743
  829WAT      O 2697   0.454   2.956   0.697  0.3774  0.0051 -0.2485
  829WAT     H1 2698   0.446   3.051   0.689  0.4054 -0.0482 -1.0328
  829WAT     H2 2699   0.537   2.935   0.653  0.4578 -0.3671  0.0701
  830WAT      O 2700   4.175   1.931   1.242  0.0316 -0.2977  0.4328
  830WAT     H1 2701   4.109   1.980   1.193  0.7847 -0.5426 -0.8646
  830WAT     H2 2702   4.199   1.990   1.314 -1.7693 -0.3216  1.1125
  831WAT      O 2703   3.469   5.411   5.558  0.4769 -0.3870  0.1601
  831WAT     H1 2704   3.442   5.470   5.629  3.0130  0.2530  0.6856
  831WAT     H2 2705   3.488   5.469   5.484  1.8524 -0.6194  0.3080
  832WAT      O 2706   3.734   2.153   5.764  0.1487 -0.4423 -0.3063
  832WAT     H1 2707   3.686   2.219   5.714 -1.6276 -0.4842  1.2346
  832WAT     H2 2708   3.781   2.102   5.698 -1.0743  0.2828 -1.8063
  833WAT      O 2709   2.394   1.836   4.426 -0.1891  0.0739  0.2529
  833WAT     H1 2710   2.341   1.884   4.490  1.0013  1.9257 -0.0882
  833WAT     H2 2711   2.418   1.755   4.472 -0.2682  0.8626  1.7443
  834WAT      O 2712   2.445   1.269   1.668  0.2748 -0.2398  0.1736
  834WAT     H1 2713   2.513   1.327   1.702  0.1011 -0.9463  1.8412
  834WAT     H2 2714   2.475   1.181   1.690 -1.1579 -0.5691  1.0018
  835WAT      O 2715   3.782   0.918   2.694 -0.6886  0.5220 -0.4251
  835WAT     H1 2716   3.709   0.941   2.751  0.5881 -1.2027  2.0881
  835WAT     H2 2717   3.831   1.000   2.685 -0.2655  0.6450  2.0913
  836WAT      O 2718   4.612   2.960   2.775 -0.1040 -0.3923 -0.5310
  836WAT     H1 2719   4.587   3.029   2.713 -1.9113 -2.4159 -2.2134
  836WAT     H2 2720   4.692   2.922   2.738  0.7273  0.5265  0.2439
  837WAT      O 2721   3.427   4.689   4.672 -0.4099  0.0372  0.0675
  837WAT     H1 2722   3.423   4.737   4.755 -3.3939  2.5476 -1.3036
  837WAT     H2 2723   3.494   4.735   4.622 -0.1600 -0.0574  0.3124
  838WAT      O 2724   1.030   3.427   5.034 -0.1325 -0.3973  0.2910
  838WAT     H1 2725   0.937   3.414   5.014 -0.6252  0.0357  2.1275
  838WAT     H2 2726   1.069   3.340   5.026 -0.2978 -0.3082 -2.1760
  839WAT      O 2727   4.557   3.367   1.006 -0.2996 -0.0537  0.1666
  839WAT     H1 2728   4.555   3.301   0.936  1.3326  1.0626 -1.0342
  839WAT     H2 2729   4.480   3.421   0.990 -0.4492 -0.3655 -0.2011
  840WAT      O 2730   0.804   2.738   2.502 -0.4492  0.1301 -0.7786
  840WAT     H1 2731   0.877   2.707   2.556 -0.4656 -0.2106 -0.9563
  840WAT     H2 2732   0.840   2.812   2.453  0.3873 -1.3167 -2.4408
  841WAT      O 2733   3.034   2.187   3.288 -0.1041  0.7544  0.2336
  841WAT     H1 2734   2.939   2.185   3.301  0.0106 -1.0291  1.0618
  841WAT     H2 2735   3.059   2.095   3.284  1.5422  1.2040 -0.4701
  842WAT      O 2736   2.763   3.509   0.573 -0.7251 -0.3355  0.3201
  842WAT     H1 2737   2.671   3.487   0.566 -0.6852 -1.1291  1.7804
  842WAT     H2 2738   2.766   3.585   0.631 -0.4510 -0.4901  0.5151
  843WAT      O 2739   1.208   4.182   3.728  0.6793 -0.5968 -0.1963
  843WAT     H1 2740   1.148   4.131   3.675  0.1151 -0.2907  0.1437
  843WAT     H2 2741   1.274   4.118   3.757  1.5089 -0.6016 -1.9681
  844WAT      O 2742   2.623   5.444   2.560  0.2579 -0.1221  0.1910
  844WAT     H1 2743   2.588   5.406   2.640  0.9086  1.1960  1.1381
  844WAT     H2 2744   2.594   5.535   2.562  1.4313  0.2849 -0.3726
  845WAT      O 2745   3.668   2.951   4.291  0.5785 -0.2959 -0.1767
  845WAT     H1 2746   3.665   2.870   4.239 -2.3565 -0.6819  0.4602
  845WAT     H2 2747   3.721   3.011   4.238  0.4582 -1.7213 -2.0126
  846WAT      O 2748   4.107   3.562   3.737  0.3043  0.4934 -0.7307
  846WAT     H1 2749   4.069   3.614   3.667  1.1160  4.2809  1.3638
  846WAT     H2 2750   4.202   3.567   3.722  0.4052 -1.8965 -1.3430
  847WAT      O 2751   1.878   1.630   5.056  0.5532 -0.4564 -0.6501
  847WAT     H1 2752   1.817   1.562   5.084 -0.5899  0.7347 -0.1554
  847WAT     H2 2753   1.830   1.712   5.066  2.5542  0.6522  0.7753
  848WAT      O 2754   4.377   1.311   3.769 -0.5445 -0.6512  0.1573
  848WAT     H1 2755   4.299   1.304   3.824  0.2004 -2.4810  1.0791
  848WAT     H2 2756   4.421   1.391   3.799 -2.1921  0.6077 -0.6203
  849WAT      O 2757   4.010   1.892   1.503 -0.1882  0.1941  0.2438
  849WAT     H1 2758   3.927   1.939   1.511  0.5511  1.6490 -0.2912
  849WAT     H2 2759   4.034   1.901   1.411  0.8147  0.2371  0.4999
  850WAT      O 2760   3.922   0.130   0.475  0.2625 -0.1587 -0.0963
  850WAT     H1 2761   3.845   0.074   0.483 -0.8789  1.3313 -0.1893
  850WAT     H2 2762   3.995   0.070   0.462 -1.0782 -1.5638 -1.4536
  851WAT      O 2763   4.126   2.317   5.361  0.2332  0.0732 -0.0395
  851WAT     H1 2764   4.174   2.272   5.431  0.6908 -0.0087 -0.3986
  851WAT     H2 2765   4.132   2.258   5.286  0.3042  0.4546 -0.3360
  852WAT      O 2766   3.543   1.960   5.103  0.1685 -0.3041 -0.6995
  852WAT     H1 2767   3.523   1.872   5.133  0.3526  0.2440  1.1631
  852WAT     H2 2768   3.635   1.956   5.078  0.8006 -0.1980  1.3908
  853WAT      O 2769   3.528   1.453   1.896  0.1460  0.1700 -0.0422
  853WAT     H1 2770   3.533   1.522   1.963 -0.1186 -0.7499  0.9623
  853WAT     H2 2771   3.600   1.472   1.836  0.7841  0.6705  0.8576
  854WAT      O 2772   2.957   5.363   0.782  0.3153 -0.0774 -0.1672
  854WAT     H1 2773   2.967   5.392   0.872  0.7426  0.9833 -0.5256
  854WAT     H2 2774   2.867   5.332   0.775  0.7115 -1.5698  0.9810
  855WAT      O 2775   0.289   3.246   5.270  0.0808 -0.9751 -1.1858
  855WAT     H1 2776   0.263   3.326   5.225  1.1677 -1.2855 -2.4234
  855WAT     H2 2777   0.349   3.275   5.338  1.0964 -0.7924 -2.1431
  856WAT      O 2778   3.670   2.036   2.080 -0.0122 -0.1032  0.2236
  856WAT     H1 2779   3.610   2.021   2.154 -0.3381 -0.5600 -0.1259
  856WAT     H2 2780   3.733   2.099   2.113  0.5077 -1.1273  1.2692
  857WAT      O 2781   4.355   1.568   4.642 -0.5258  0.2065 -0.1728
  857WAT     H1 2782   4.426   1.610   4.593 -0.0802  0.0708  0.3337
  857WAT     H2 2783   4.321   1.501   4.583 -0.8843  0.9165 -0.7843
  858WAT      O 2784   4.077   0.546   5.172 -0.0974 -0.1339 -0.0877
  858WAT     H1 2785   4.005   0.579   5.224 -0.4707  0.8560 -1.1854
  858WAT     H2 2786   4.077   0.451   5.188 -1.1499 -0.0483  0.5029
  859WAT      O 2787   4.464   3.428   1.989  0.1326 -0.4357  0.3600
  859WAT     H1 2788   4.455   3.393   1.900 -0.6237 -0.2355  0.3521
  859WAT     H2 2789   4.555   3.410   2.013  0.2638 -0.7380 -0.3503
  860WAT      O 2790   4.953   2.255   4.038 -0.2394  0.0810  0.0894
  860WAT     H1 2791   4.981   2.236   3.949 -1.5133  1.2851 -0.5987
  860WAT     H2 2792   4.947   2.169   4.080  0.2645 -0.5092 -1.0119
  861WAT      O 2793   0.704   2.790   5.264 -0.3482 -0.8148 -0.5769
  861WAT     H1 2794   0.787   2.747   5.248 -0.3154 -0.3971 -1.6505
  861WAT     H2 2795   0.683   2.832   5.181 -0.3423  1.2734  0.4105
  862WAT      O 2796   4.720   4.057   3.242  0.3277 -0.4461 -0.6124
  862WAT     H1 2797   4.668   4.116   3.297 -0.0427 -0.5446 -0.8478
  862WAT     H2 2798   4.803   4.048   3.288 -0.4365 -1.5617  0.6292
  863WAT      O 2799   1.728   3.754   3.935  0.6398  0.2902  0.2932
  863WAT     H1 2800   1.692   3.810   3.867 -0.6271  1.7739  2.0748
  863WAT     H2 2801   1.777   3.687   3.888  1.2603  2.2184 -1.9808
  864WAT      O 2802   3.653   2.659   4.529 -0.4495 -0.6094 -0.2477
  864WAT     H1 2803   3.658   2.640   4.436 -0.7124 -1.5707 -0.0771
  864WAT     H2 2804   3.683   2.579   4.572 -2.2927 -0.9602  0.5088
  865WAT      O 2805   3.353   3.139   5.149  0.4275 -0.2846  0.4967
  865WAT     H1 2806   3.315   3.211   5.099  0.1703  0.2497  1.4479
  865WAT     H2 2807   3.443   3.133   5.117 -0.2927 -1.3061 -1.4934
  866WAT      O 2808   4.790   2.888   1.024  0.0474 -0.1010  0.1160
  866WAT     H1 2809   4.807   2.908   0.932  2.4790 -1.5306  0.1826
  866WAT     H2 2810   4.696   2.873   1.028 -0.3592  1.4559 -1.8025
  867WAT      O 2811   4.138   4.215   5.485  0.0250 -0.2686  0.2835
  867WAT     H1 2812   4.085   4.291   5.461  1.8530  0.5095 -1.5442
  867WAT     H2 2813   4.118   4.201   5.578  0.0832  2.8494  0.8865
  868WAT      O 2814   3.644   0.633   3.973 -0.1031 -0.1734  0.1536
  868WAT     H1 2815   3.659   0.539   3.987 -0.7594 -0.3881 -0.5378
  868WAT     H2 2816   3.574   0.637   3.908  1.1155  0.7846 -1.1751
  869WAT      O 2817   2.198   1.152   4.014 -0.1816  0.4994  0.9696
  869WAT     H1 2818   2.220   1.063   4.041  2.6989  1.2216  1.4242
  869WAT     H2 2819   2.137   1.141   3.941 -0.1679 -1.8242  1.2397
  870WAT      O 2820   0.027   2.773   0.149  0.2165 -0.2483  0.2004
  870WAT     H1 2821  -0.033   2.798   0.079  2.5911  0.6963 -1.6312
  870WAT     H2 2822   0.029   2.678   0.147 -1.4223 -0.3185  0.5358
  871WAT      O 2823   3.912   0.933   3.009 -0.0780  0.0145  0.2535
  871WAT     H1 2824   3.961   1.010   2.982 -3.3940  1.1580 -3.3862
  871WAT     H2 2825   3.936   0.865   2.946 -0.2904 -0.6682  0.8860
  872WAT      O 2826   3.983   1.577   1.214 -0.2358  0.0450 -0.4411
  872WAT     H1 2827   3.923   1.633   1.165  0.1231  1.1539  0.3555
  872WAT     H2 2828   3.938   1.492   1.217 -2.3354  1.1115  1.0804
  873WAT      O 2829   1.247   2.968   0.739 -0.8791  0.6016  0.2468
  873WAT     H1 2830   1.216   3.041   0.685 -1.4435  0.8794  0.9307
  873WAT     H2 2831   1.168   2.921   0.764 -0.4766 -0.7010 -0.7802
  874WAT      O 2832   2.536   4.050   4.296 -0.5176  0.1552 -0.4460
  874WAT     H1 2833   2.570   4.079   4.381  0.6293 -1.2656 -0.3888
  874WAT     H2 2834   2.589   4.097   4.231 -0.4419  0.1797 -0.3666
  875WAT      O 2835   0.333   1.730   4.323 -0.0638  0.0699  0.3181
  875WAT     H1 2836   0.273   1.753   4.252  1.3808  2.0878 -0.3479
  875WAT     H2 2837   0.299   1.776   4.399 -0.8563 -1.0050  0.6333
  876WAT      O 2838   1.957   1.879   2.685 -0.3845  0.1212  0.1561
  876WAT     H1 2839   1.921   1.799   2.723  0.3975 -0.3523 -0.1015
  876WAT     H2 2840   1.971   1.936   2.761  0.1975 -0.4378  0.4775
  877WAT      O 2841   0.437   2.773   4.625 -0.1915 -0.4316  0.5290
  877WAT     H1 2842   0.498   2.846   4.615 -0.5064 -0.0476  1.3019
  877WAT     H2 2843   0.410   2.778   4.717  0.9036 -2.3979  1.0064
  878WAT      O 2844   2.773   1.725   4.392 -1.1099  0.1878  0.1044
  878WAT     H1 2845   2.692   1.745   4.346 -0.5725 -0.9293 -1.3787
  878WAT     H2 2846   2.841   1.773   4.344 -0.4650 -1.4283 -0.6786
  879WAT      O 2847   4.614   1.932   3.679 -0.2136  0.0086  0.1774
  879WAT     H1 2848   4.638   2.024   3.676 -0.3650  0.0389 -2.6832
  879WAT     H2 2849   4.594   1.915   3.772 -3.5572  3.7349  0.4096
  880WAT      O 2850   0.033   1.853   3.435  0.1092  0.6315  0.0016
  880WAT     H1 2851  -0.025   1.925   3.412 -0.0613  0.7060  0.6371
  880WAT     H2 2852   0.109   1.863   3.378  0.5185  1.8769  0.7264
  881WAT      O 2853   4.632   2.785   5.577 -0.2212 -0.0603  0.1997
  881WAT     H1 2854   4.621   2.872   5.538 -0.5354  0.4422  1.3921
  881WAT     H2 2855   4.546   2.744   5.569  0.1620 -0.6543 -1.2325
  882WAT      O 2856   1.861   4.589   4.224 -0.1891 -0.3591  0.0689
  882WAT     H1 2857   1.825   4.544   4.301 -0.8797 -1.2019 -0.7182
  882WAT     H2 2858   1.953   4.563   4.222 -0.1527 -0.2883  0.6348
  883WAT      O 2859   1.930   1.718   5.339  0.2789 -0.2088  0.4342
  883WAT     H1 2860   1.931   1.784   5.269  0.3420 -1.0324 -0.3519
  883WAT     H2 2861   1.935   1.634   5.294 -1.7044 -0.8596  1.3223
  884WAT      O 2862   2.519   1.604   0.116 -0.0870  0.3993 -0.0758
  884WAT     H1 2863   2.464   1.633   0.189 -0.8751 -1.0593 -0.0618
  884WAT     H2 2864   2.478   1.641   0.038 -0.3933  0.3054  0.0416
  885WAT      O 2865   4.041   4.343   2.334  0.1240  0.2400  0.6041
  885WAT     H1 2866   3.962   4.314   2.288  2.2622 -0.9245 -2.7234
  885WAT     H2 2867   4.019   4.431   2.364 -2.3904  0.0181 -0.2814
  886WAT      O 2868   4.340   2.212   1.121  0.7266 -0.0709 -0.4372
  886WAT     H1 2869   4.371   2.285   1.067 -0.3566  0.0552 -0.9081
  886WAT     H2 2870   4.245   2.217   1.116  0.6303 -1.6784 -0.7101
  887WAT      O 2871   2.810   0.607   1.088 -0.4506  0.1081  0.0663
  887WAT     H1 2872   2.856   0.637   1.166 -0.1223 -0.3101  0.0414
  887WAT     H2 2873   2.860   0.645   1.015 -0.5216  0.1774  0.0545
  888WAT      O 2874   4.153   1.640   2.892 -0.0639 -0.7966  0.4393
  888WAT     H1 2875   4.204   1.714   2.860 -1.9494  0.2522 -0.2534
  888WAT     H2 2876   4.209   1.600   2.959  2.0435 -0.2988 -0.9247
  889WAT      O 2877   4.300   1.818   3.469 -0.2884  0.0178  0.2723
  889WAT     H1 2878   4.305   1.753   3.539 -1.7182 -0.5518 -0.1167
  889WAT     H2 2879   4.391   1.846   3.456 -0.0526  0.8632  2.9924
  890WAT      O 2880   1.733   0.629   5.518  0.0961 -0.4767 -0.0507
  890WAT     H1 2881   1.699   0.574   5.447 -0.4852  0.6124 -0.6341
  890WAT     H2 2882   1.828   0.617   5.514  0.2314  0.8878 -2.1661
  891WAT      O 2883   2.874   1.989   3.011 -0.4550 -0.1816  0.1249
  891WAT     H1 2884   2.836   1.902   3.003 -0.4828 -0.0062 -2.1024
  891WAT     H2 2885   2.936   1.981   3.083  0.3358 -2.3459 -0.7267
  892WAT      O 2886   1.942   0.722   4.550 -0.5923  0.0406 -0.0583
  892WAT     H1 2887   1.997   0.679   4.485 -0.8172  1.2603 -1.1148
  892WAT     H2 2888   1.934   0.659   4.621  2.0836 -0.1993  0.1030
  893WAT      O 2889   3.388   1.754   2.293  0.3657 -1.1822 -0.5240
  893WAT     H1 2890   3.350   1.693   2.230  1.4848 -2.4538 -0.0132
  893WAT     H2 2891   3.444   1.700   2.349  0.9729  0.2269  0.3041
  894WAT      O 2892   3.015   0.400   4.246  0.1686 -0.4706  0.1849
  894WAT     H1 2893   2.956   0.395   4.171  3.1406 -1.5149 -2.3344
  894WAT     H2 2894   3.019   0.493   4.268 -0.6689 -0.1080 -1.0841
  895WAT      O 2895   3.963   3.110   3.359 -0.3047  0.5419 -0.2487
  895WAT     H1 2896   3.871   3.136   3.357 -0.3494  0.3144 -1.6195
  895WAT     H2 2897   3.964   3.022   3.321  0.9454  2.1603 -4.4177
  896WAT      O 2898   4.113   1.122   3.290  0.1919 -0.1855 -0.4597
  896WAT     H1 2899   4.090   1.110   3.382  1.5901  1.0590  0.0994
  896WAT     H2 2900   4.076   1.207   3.266  1.5391  0.4531 -0.4040
  897WAT      O 2901   3.796   0.842   3.814  0.1591  0.0640 -0.4242
  897WAT     H1 2902   3.761   0.816   3.899 -1.3894  0.4229 -0.9276
  897WAT     H2 2903   3.729   0.900   3.777  1.3092  0.8035 -1.4214
  898WAT      O 2904   3.033   4.434   0.533  0.2086 -0.1609 -0.2102
  898WAT     H1 2905   3.040   4.367   0.465 -1.2406 -1.4788  0.8576
  898WAT     H2 2906   3.023   4.384   0.614 -0.0796  1.3703  0.7377
  899WAT      O 2907   4.580   1.769   3.477  0.2513  0.1651  0.0198
  899WAT     H1 2908   4.662   1.782   3.429 -0.3381 -1.9178 -1.7500
  899WAT     H2 2909   4.586   1.828   3.552  3.3857  0.0461  0.0024
  900WAT      O 2910   3.798   0.390   3.698 -0.1292 -0.6907 -0.0524
  900WAT     H1 2911   3.798   0.352   3.785 -1.9142 -1.4278 -0.3244
  900WAT     H2 2912   3.862   0.461   3.702  0.4206 -1.2461  1.5920
  901WAT      O 2913   4.903   2.545   5.203  0.0469  0.5479  0.0516
  901WAT     H1 2914   4.981   2.534   5.150 -1.0598 -0.4748 -1.4297
  901WAT     H2 2915   4.896   2.640   5.216 -0.0647  0.9213 -2.3183
  902WAT      O 2916   2.573   1.077   1.919 -0.0106  0.3532 -0.2576
  902WAT     H1 2917   2.604   1.014   1.985 -0.8967  0.7549  0.5560
  902WAT     H2 2918   2.641   1.144   1.917  1.6443 -1.2516 -2.1145
  903WAT      O 2919   3.743   1.819   0.327 -0.0990 -0.4168  0.1751
  903WAT     H1 2920   3.768   1.897   0.277 -2.1567  0.9175  1.0773
  903WAT     H2 2921   3.657   1.841   0.364 -0.6942 -3.0894  0.5694
  904WAT      O 2922   3.122   1.412   4.388 -0.0413 -0.1490 -0.3607
  904WAT     H1 2923   3.032   1.441   4.398 -0.1081 -0.4336 -0.1346
  904WAT     H2 2924   3.144   1.433   4.297 -0.0894  0.5967 -0.2034
  905WAT      O 2925   4.684   4.220   0.533  0.2308 -0.5724 -0.1489
  905WAT     H1 2926   4.589   4.233   0.540 -0.2734 -3.2013 -1.0292
  905WAT     H2 2927   4.708   4.173   0.613  0.7269 -0.3163 -0.1410
  906WAT      O 2928   4.216   2.798   1.005 -0.4163  0.0248  0.4098
  906WAT     H1 2929   4.265   2.779   1.085  0.7432  0.2435 -0.2312
  906WAT     H2 2930   4.196   2.891   1.012 -0.3942  0.0251  0.4782
  907WAT      O 2931   4.842   1.815   5.417  0.2116 -0.0009  0.3107
  907WAT     H1 2932   4.826   1.734   5.368  1.1521  0.4257 -0.7400
  907WAT     H2 2933   4.937   1.823   5.421  0.1334  0.9924  0.5098
  908WAT      O 2934   3.964   3.672   0.379 -0.2015 -0.5973  0.0686
  908WAT     H1 2935   4.054   3.638   0.383  0.2579  0.4812 -0.5654
  908WAT     H2 2936   3.946   3.680   0.286  0.3833  2.4552  0.0910
  909WAT      O 2937   1.651   3.421   4.218  0.4483 -0.8894  0.1041
  909WAT     H1 2938   1.627   3.340   4.173 -0.7761 -0.5988  0.2163
  909WAT     H2 2939   1.608   3.491   4.168  0.2894 -0.4402  0.8547
  910WAT      O 2940   2.007   0.520   5.022 -0.0178  0.0894 -0.4767
  910WAT     H1 2941   2.060   0.464   4.965  0.1482  0.8318 -1.0605
  910WAT     H2 2942   2.050   0.605   5.020  0.3566 -0.0187  1.2759
  911WAT      O 2943   0.181   1.848   4.112 -0.0366  0.2002  0.2793
  911WAT     H1 2944   0.159   1.805   4.029  0.4935  1.7612 -0.7054
  911WAT     H2 2945   0.109   1.910   4.126 -0.1917 -0.1529  1.0655
  912WAT      O 2946   4.439   1.238   5.711  0.2386 -0.1011 -0.3315
  912WAT     H1 2947   4.383   1.226   5.634 -1.0702 -0.1276  0.5889
  912WAT     H2 2948   4.513   1.290   5.679 -1.4595  1.9837 -1.0998
  913WAT      O 2949   4.613   1.078   1.067 -0.1630  0.0281  0.5539
  913WAT     H1 2950   4.560   1.058   1.144  0.1299  0.5466  0.8983
  913WAT     H2 2951   4.568   1.151   1.025 -0.2112 -0.1188  0.3536
  914WAT      O 2952   3.068   0.378   0.526  0.0212  0.1243  0.0079
  914WAT     H1 2953   3.075   0.472   0.541  0.7979  0.3044 -1.2598
  914WAT     H2 2954   2.977   0.364   0.502  0.0894  0.6989 -0.6123
  915WAT      O 2955   0.137   3.275   3.564 -0.1043 -1.0983 -0.5199
  915WAT     H1 2956   0.183   3.299   3.484  0.2401  0.5532  0.1304
  915WAT     H2 2957   0.045   3.271   3.539 -0.4600  2.7678 -0.4155
  916WAT      O 2958   0.682   2.020   4.768  0.0437  0.5189  0.6366
  916WAT     H1 2959   0.730   2.051   4.691  1.6111 -1.8018  0.5854
  916WAT     H2 2960   0.744   2.029   4.840 -0.7925  0.9910  1.3155
  917WAT      O 2961   0.267   2.848   0.857 -0.5201  0.0245 -0.0189
  917WAT     H1 2962   0.345   2.879   0.809 -1.1614 -0.3685 -1.3734
  917WAT     H2 2963   0.237   2.772   0.807 -1.9397  0.3379  0.3106
  918WAT      O 2964   3.828   5.081   1.813  0.0693  0.3371 -0.2518
  918WAT     H1 2965   3.802   5.139   1.741 -3.0937 -0.2296  0.2897
  918WAT     H2 2966   3.793   4.995   1.789  1.6046 -0.5700  0.5977
  919WAT      O 2967   2.711   2.361   1.964 -0.3790  0.7256  0.1202
  919WAT     H1 2968   2.721   2.266   1.954  0.6462  0.6754  1.2806
  919WAT     H2 2969   2.784   2.398   1.916 -0.1760  0.8710  0.5381
  920WAT      O 2970   1.110   4.031   1.694  0.2112 -0.0790  0.6472
  920WAT     H1 2971   1.076   3.966   1.755  1.3776  0.3059  1.7554
  920WAT     H2 2972   1.144   4.101   1.749 -2.0994  2.1085 -0.5347
  921WAT      O 2973   4.477   2.691   3.845  0.0719 -0.3791 -0.4199
  921WAT     H1 2974   4.452   2.631   3.915  1.3931  0.2162  0.5964
  921WAT     H2 2975   4.572   2.684   3.840  0.0252 -0.2851 -2.0700
  922WAT      O 2976   3.026   0.513   5.616  0.0456  0.1668 -0.2222
  922WAT     H1 2977   2.948   0.520   5.562  0.8565  0.8942 -1.3442
  922WAT     H2 2978   3.098   0.503   5.554  1.0154  1.0409  0.6979
  923WAT      O 2979   3.933   2.531   0.720  0.0393 -0.3688  0.1303
  923WAT     H1 2980   3.875   2.582   0.777  0.1433  0.5916 -0.5897
  923WAT     H2 2981   4.009   2.512   0.774  0.3327  0.9200  0.1926
  924WAT      O 2982   4.821   2.661   1.361  0.2017  0.5071 -0.4368
  924WAT     H1 2983   4.885   2.594   1.382  0.3166  1.2217  1.6888
  924WAT     H2 2984   4.792   2.639   1.272  3.4665  0.2359 -1.5920
  925WAT      O 2985   1.729   3.179   5.482 -0.0058 -0.6957 -0.7695
  925WAT     H1 2986   1.768   3.227   5.409  0.4254  1.5358  0.7968
  925WAT     H2 2987   1.790   3.108   5.501  0.7178 -0.2910 -1.5405
  926WAT      O 2988   3.192   2.333   3.131 -0.5588  0.2750  0.3220
  926WAT     H1 2989   3.150   2.262   3.180  0.1347  0.4352  1.1643
  926WAT     H2 2990   3.211   2.400   3.197  0.6310  0.3873 -0.1162
  927WAT      O 2991   2.902   2.007   1.666 -0.5055  0.3524  0.5221
  927WAT     H1 2992   2.980   1.952   1.677 -1.7903 -1.6371  0.3234
  927WAT     H2 2993   2.936   2.091   1.635  1.5935 -0.1960  1.1543
  928WAT      O 2994   3.008   2.491   5.565 -0.2755  0.1229  0.1743
  928WAT     H1 2995   3.030   2.403   5.535 -1.6050  0.1676 -1.0330
  928WAT     H2 2996   2.973   2.535   5.488 -0.2429  1.5134  0.9110
  929WAT      O 2997   0.972   2.766   5.316 -0.2139  1.0843  0.2217
  929WAT     H1 2998   0.958   2.674   5.339  0.4049  0.8073 -0.4800
  929WAT     H2 2999   0.927   2.815   5.385 -3.1624  0.2550 -0.9363
  930WAT      O 3000   1.142   1.347   1.597 -0.1476  0.1030  0.0814
  930WAT     H1 3001   1.078   1.399   1.646  0.4498  0.8047  0.1269
  930WAT     H2 3002   1.116   1.356   1.506  0.5755  1.3716 -0.0148
  931WAT      O 3003   3.245   1.364   2.933  0.4409  0.0930 -0.6077
  931WAT     H1 3004   3.184   1.422   2.887 -0.7192 -1.1450 -0.6906
  931WAT     H2 3005   3.297   1.423   2.988 -0.3308  1.2547 -1.0824
  932WAT      O 3006   4.316   1.579   0.341 -0.0288 -0.0168  0.0371
  932WAT     H1 3007   4.236   1.575   0.288 -1.3478  0.8321  1.8376
  932WAT     H2 3008   4.288   1.555   0.430  1.3917  1.6322  1.0138
  933WAT      O 3009   2.302   3.304   5.767 -0.1296  0.5101  0.3729
  933WAT     H1 3010   2.289   3.209   5.768 -0.3425  0.5440  0.8755
  933WAT     H2 3011   2.305   3.326   5.674 -2.0133  0.2787  0.2233
  934WAT      O 3012   3.033   0.661   0.466  0.0869 -0.3310 -0.0875
  934WAT     H1 3013   3.072   0.725   0.525  0.5362  0.0280 -0.7611
  934WAT     H2 3014   2.964   0.709   0.421  0.1302 -0.4403 -0.2740
  935WAT      O 3015   2.877   1.291   5.400 -0.4216 -0.1372 -0.4725
  935WAT     H1 3016   2.784   1.274   5.386 -0.4110 -0.8380  0.2496
  935WAT     H2 3017   2.881   1.330   5.488 -0.1229  0.7891 -0.8835
  936WAT      O 3018   4.007   3.105   4.017  0.9111  0.3325  0.2661
  936WAT     H1 3019   4.004   3.186   3.965  0.2482 -0.2540 -0.6267
  936WAT     H2 3020   3.924   3.105   4.065  0.6622 -0.0777 -0.1529
  937WAT      O 3021   1.765   4.307   5.352  0.0767  0.4675 -0.2918
  937WAT     H1 3022   1.671   4.290   5.343  0.3270 -0.8281 -0.7267
  937WAT     H2 3023   1.805   4.257   5.280  1.2687 -0.7765  1.1774
  938WAT      O 3024   2.788   2.943   5.713  0.4223  0.1342 -0.3235
  938WAT     H1 3025   2.779   2.853   5.743  2.0474  0.7081  2.1762
  938WAT     H2 3026   2.703   2.965   5.677  0.0806 -2.4739 -1.3196
  939WAT      O 3027   4.853   2.827   5.279 -0.1896  0.6804  0.5968
  939WAT     H1 3028   4.760   2.838   5.300 -0.3461 -0.9447  0.8882
  939WAT     H2 3029   4.895   2.808   5.363  0.2571  0.5565  0.3540
  940WAT      O 3030   3.249   2.365   2.470  0.0559  0.6997  0.5374
  940WAT     H1 3031   3.201   2.372   2.552 -0.3540  2.2259  0.1979
  940WAT     H2 3032   3.191   2.405   2.405  1.6689  2.4562  0.0823
  941WAT      O 3033   2.957   5.315   0.036 -0.2042 -0.0898 -0.2368
  941WAT     H1 3034   2.956   5.227   0.073  0.5000  0.2479  0.6288
  941WAT     H2 3035   2.876   5.321  -0.014 -0.4996 -1.0568  0.1086
  942WAT      O 3036   4.826   1.999   1.259 -0.2696 -0.0827  0.0308
  942WAT     H1 3037   4.733   2.018   1.244  0.1981  2.8819  0.2376
  942WAT     H2 3038   4.856   1.960   1.177 -1.0667  1.8403 -1.2602
  943WAT      O 3039   3.906   1.472   4.231  0.5776 -0.6002 -0.0224
  943WAT     H1 3040   3.891   1.550   4.178  1.1429 -1.6348 -1.8033
  943WAT     H2 3041   4.000   1.471   4.247  0.4445 -0.4375  0.7818
  944WAT      O 3042   2.139   3.718   2.507 -0.2731 -0.2531  0.2285
  944WAT     H1 3043   2.070   3.743   2.446 -1.5705 -1.9667  0.9120
  944WAT     H2 3044   2.215   3.701   2.451 -0.9403 -0.1527 -0.7366
  945WAT      O 3045   4.891   1.518   4.557 -0.4078  0.3763 -0.0835
  945WAT     H1 3046   4.841   1.459   4.613  1.0597 -0.2630  0.5958
  945WAT     H2 3047   4.956   1.557   4.615 -0.7992  2.0358 -0.7065
  946WAT      O 3048   3.922   1.211   0.427  0.0171 -0.0001  0.1105
  946WAT     H1 3049   3.980   1.252   0.492 -0.2652 -0.7299  0.8482
  946WAT     H2 3050   3.851   1.174   0.480 -0.2032 -0.6394 -0.6237
  947WAT      O 3051   0.675   2.386   0.040 -0.0468  0.1242  0.3774
  947WAT     H1 3052   0.606   2.440   0.001 -0.1574 -0.2874 -0.0134
  947WAT     H2 3053   0.630   2.309   0.072 -0.2724  1.3174  3.1838
  948WAT      O 3054   4.380   1.686   4.322 -0.1402  0.4030  0.3814
  948WAT     H1 3055   4.310   1.622   4.333  0.1971 -0.6055 -2.4787
  948WAT     H2 3056   4.453   1.652   4.374 -1.4042  1.0299  2.7069
  949WAT      O 3057   3.688   3.010   1.207 -0.2658  0.4619  0.1016
  949WAT     H1 3058   3.609   3.063   1.222 -0.1867  0.4941  0.4190
  949WAT     H2 3059   3.683   2.985   1.115 -0.7023  0.3796  0.1451
  950WAT      O 3060   3.022   5.132   2.642  0.1667 -0.0358  0.0888
  950WAT     H1 3061   3.045   5.183   2.719  0.7925  1.2050 -0.8783
  950WAT     H2 3062   2.957   5.186   2.596 -0.3980 -0.8730 -0.1233
  951WAT      O 3063   2.845   1.563   4.704  0.1090  0.0046 -0.1120
  951WAT     H1 3064   2.789   1.554   4.781  0.7692 -0.2423  0.3558
  951WAT     H2 3065   2.901   1.639   4.724  1.2402 -0.9009  0.2930
  952WAT      O 3066   2.482   0.241   5.192  0.2682 -0.6952  0.6418
  952WAT     H1 3067   2.505   0.235   5.100 -0.3778 -1.0169  0.4917
  952WAT     H2 3068   2.396   0.284   5.192  0.0825 -1.0512  1.0591
  953WAT      O 3069   0.924   2.669   0.271  0.1063 -0.2066 -0.1376
  953WAT     H1 3070   0.993   2.604   0.285  2.6494  2.0364 -1.2242
  953WAT     H2 3071   0.940   2.735   0.339 -1.1268  0.2631 -0.2848
  954WAT      O 3072   4.061   1.862   5.035  0.0092 -0.4236 -0.3295
  954WAT     H1 3073   4.034   1.774   5.007  1.0626 -0.6331 -0.7380
  954WAT     H2 3074   4.156   1.856   5.041  0.2483  1.1431 -1.9223
  955WAT      O 3075   2.527   1.306   3.971  0.1039  0.0554  0.0027
  955WAT     H1 3076   2.507   1.219   4.005 -1.6423  0.2179 -0.5254
  955WAT     H2 3077   2.473   1.366   4.023  1.6751  0.9174  0.7265
  956WAT      O 3078   1.001   3.291   1.214  0.1493  0.4113  0.7316
  956WAT     H1 3079   1.019   3.301   1.121  0.4073 -0.9546  0.6277
  956WAT     H2 3080   0.906   3.307   1.222  0.3282  1.7668  0.4466
  957WAT      O 3081   4.054   4.289   4.245 -0.2446 -0.6831  0.0101
  957WAT     H1 3082   4.085   4.355   4.183 -1.3208  0.2117  0.3877
  957WAT     H2 3083   3.959   4.292   4.238 -0.4296 -0.1538  2.0896
  958WAT      O 3084   3.805   3.204   5.561 -0.2114  0.3321 -0.1888
  958WAT     H1 3085   3.899   3.200   5.547 -0.0014  0.5612  1.0362
  958WAT     H2 3086   3.774   3.269   5.498  0.3364 -0.2416 -1.0697
  959WAT      O 3087   1.741   2.856   3.810  0.3374  0.0798 -0.4463
  959WAT     H1 3088   1.654   2.872   3.775 -0.8210 -3.3172  0.4049
  959WAT     H2 3089   1.725   2.830   3.901  2.5921  2.2407  0.6760
  960WAT      O 3090   4.527   1.518   0.715  0.0110 -0.3523  0.1192
  960WAT     H1 3091   4.513   1.561   0.799 -0.8591  1.1188 -0.7361
  960WAT     H2 3092   4.491   1.579   0.650  1.7725 -0.8720 -1.4376
  961WAT      O 3093   1.532   1.329   2.727  0.6001  0.1296  0.0731
  961WAT     H1 3094   1.534   1.398   2.661  1.5722 -0.2961 -0.3598
  961WAT     H2 3095   1.598   1.266   2.698 -0.2760 -0.9953  0.4486
  962WAT      O 3096   3.997   1.539   3.849 -0.4975  0.2340  0.1320
  962WAT     H1 3097   4.044   1.577   3.923 -1.2278  2.7223 -0.6035
  962WAT     H2 3098   3.907   1.530   3.881 -0.7286  0.9365 -0.3083
  963WAT      O 3099   3.890   0.262   3.061  0.2066  0.9810  0.0716
  963WAT     H1 3100   3.861   0.209   2.987 -0.6819  2.3087 -0.5749
  963WAT     H2 3101   3.925   0.199   3.123  0.3177 -0.2363 -1.1733
  964WAT      O 3102   0.877   1.603   0.190 -0.1477  0.3349 -0.1054
  964WAT     H1 3103   0.805   1.639   0.241 -0.9943 -0.5733 -0.6397
  964WAT     H2 3104   0.926   1.680   0.160 -0.2641  0.9212  1.1281
  965WAT      O 3105   4.661   2.218   3.599 -0.0598 -0.0207 -0.2712
  965WAT     H1 3106   4.733   2.279   3.581  0.8639 -0.6325  1.1762
  965WAT     H2 3107   4.639   2.234   3.691  0.1494 -1.7981  0.1176
  966WAT      O 3108   4.002   3.725   2.041  0.4230 -0.7765  0.4433
  966WAT     H1 3109   4.095   3.735   2.058  0.4783 -0.7595  0.1457
  966WAT     H2 3110   3.959   3.768   2.114  0.6518 -0.3423  0.3257
  967WAT      O 3111   2.974   5.654   2.397  0.2849 -0.3637  0.7119
  967WAT     H1 3112   3.038   5.700   2.344  0.1975  0.7460  1.5329
  967WAT     H2 3113   2.963   5.569   2.354  0.0406  0.5676 -1.1664
  968WAT      O 3114   2.363   1.229   4.295 -0.6541  0.1972  0.1774
  968WAT     H1 3115   2.334   1.223   4.386  0.0764 -3.1542  0.3093
  968WAT     H2 3116   2.288   1.269   4.249 -0.8851  2.3286  2.2171
  969WAT      O 3117   4.404   2.784   2.554  0.0367 -0.3778 -0.1025
  969WAT     H1 3118   4.430   2.788   2.462  1.0775  0.9762  0.2144
  969WAT     H2 3119   4.396   2.876   2.580 -1.9489 -0.7392  0.7194
  970WAT      O 3120   3.337   1.385   0.795  0.4428 -0.0878  0.1412
  970WAT     H1 3121   3.312   1.476   0.780  1.6724 -0.1925 -3.4920
  970WAT     H2 3122   3.411   1.390   0.854 -0.2737  1.1459  0.9812
  971WAT      O 3123   3.693   4.915   5.628  0.1796  0.2107  0.2691
  971WAT     H1 3124   3.682   4.936   5.721  1.0253 -0.8309  0.6184
  971WAT     H2 3125   3.669   4.996   5.583 -3.2975 -0.1202  1.1998
  972WAT      O 3126   1.393   2.741   3.256 -0.3535 -0.4989  0.8684
  972WAT     H1 3127   1.366   2.652   3.232  2.8728 -1.3746  0.0243
  972WAT     H2 3128   1.430   2.778   3.176  2.3376 -0.1101  2.1627
  973WAT      O 3129   3.569   1.569   0.065 -0.4720  0.2227  0.6302
  973WAT     H1 3130   3.526   1.650   0.090 -2.5480 -0.1547 -1.3713
  973WAT     H2 3131   3.662   1.587   0.076 -0.9817  1.9042  2.8482
  974WAT      O 3132   3.710   2.820   1.392 -0.6403  0.1516 -0.4482
  974WAT     H1 3133   3.627   2.831   1.438  0.2283  1.5885  0.8481
  974WAT     H2 3134   3.700   2.872   1.313 -1.2149 -0.2630 -0.6595
  975WAT      O 3135   2.178   4.754   2.474  0.0051  0.0492 -0.1892
  975WAT     H1 3136   2.207   4.732   2.562  1.1350 -1.2952 -0.8546
  975WAT     H2 3137   2.168   4.849   2.475  0.6699  0.1302  1.1933
  976WAT      O 3138   0.658   2.349   3.316  0.2052  0.0085 -0.3592
  976WAT     H1 3139   0.613   2.389   3.242  0.4492  1.2975  0.1608
  976WAT     H2 3140   0.589   2.305   3.366 -0.1641  0.2806 -0.6310
  977WAT      O 3141   0.309   1.572   0.836 -0.3340  0.1146 -0.0359
  977WAT     H1 3142   0.396   1.539   0.858 -1.1852 -1.1419  1.6514
  977WAT     H2 3143   0.298   1.548   0.744  0.8090 -0.3785 -0.0660
  978WAT      O 3144   4.548   3.120   4.030  0.3500  0.0959  0.0754
  978WAT     H1 3145   4.518   3.046   3.978 -1.8547  1.9037 -1.4366
  978WAT     H2 3146   4.635   3.141   3.995  0.2818 -0.7254 -0.6089
  979WAT      O 3147   3.432   1.795   0.748  0.6287 -0.2283  0.5951
  979WAT     H1 3148   3.440   1.868   0.810 -0.9149  1.8708 -1.4756
  979WAT     H2 3149   3.340   1.769   0.753  0.8761 -1.1937  0.3712
  980WAT      O 3150   3.411   4.362   2.214  0.2466 -0.0862  0.0898
  980WAT     H1 3151   3.448   4.413   2.143  0.0729 -1.3511 -0.9424
  980WAT     H2 3152   3.483   4.351   2.277  1.2767 -1.3689 -1.2462
  981WAT      O 3153   2.958   1.033   0.768 -0.1950  0.8307 -0.2511
  981WAT     H1 3154   3.033   1.085   0.737 -0.5543 -0.5563 -3.9887
  981WAT     H2 3155   2.881   1.083   0.740 -0.5777 -0.0362 -0.7618
  982WAT      O 3156   2.938   1.958   0.631 -0.1310 -0.3786  0.3963
  982WAT     H1 3157   2.889   1.924   0.557 -0.5019  0.7196  0.1210
  982WAT     H2 3158   2.927   1.892   0.700 -0.5641 -0.9505 -0.2091
  983WAT      O 3159   4.044   4.523   4.109 -1.0067 -0.1580  0.5483
  983WAT     H1 3160   4.026   4.617   4.103 -1.3115 -0.2336  0.2326
  983WAT     H2 3161   3.979   4.482   4.051  1.0309 -0.3323 -1.7813
  984WAT      O 3162   4.210   3.465   3.402  0.4540  0.8649  0.1652
  984WAT     H1 3163   4.149   3.539   3.403 -0.8001 -0.1258 -0.3139
  984WAT     H2 3164   4.166   3.398   3.455  0.9408 -0.0060 -0.5104
  985WAT      O 3165   3.851   0.131   2.201  0.1742  0.1529 -0.4820
  985WAT     H1 3166   3.864   0.201   2.265 -0.3647 -0.8012  0.6996
  985WAT     H2 3167   3.929   0.135   2.145  1.2012  0.2940  0.9143
  986WAT      O 3168   0.971   2.235   0.961 -0.3871 -0.1273  0.7038
  986WAT     H1 3169   0.900   2.256   0.902 -0.2032  1.3077  0.9560
  986WAT     H2 3170   0.931   2.182   1.030 -0.9184 -0.4778  0.1281
  987WAT      O 3171   2.184   0.315   1.360 -0.0636  0.0589 -0.5977
  987WAT     H1 3172   2.133   0.371   1.303  1.6329  0.4347 -1.8275
  987WAT     H2 3173   2.164   0.345   1.449 -0.9506  1.0320 -1.1138
  988WAT      O 3174   2.214   2.179   1.608 -0.0292 -0.1633  0.4850
  988WAT     H1 3175   2.181   2.262   1.573  0.6252 -0.6445 -1.3724
  988WAT     H2 3176   2.154   2.113   1.572  0.5570 -0.6675  0.4287
  989WAT      O 3177   2.174   4.638   3.161  0.2721 -0.4473  0.6267
  989WAT     H1 3178   2.200   4.728   3.142  1.4030 -1.0307 -0.7618
  989WAT     H2 3179   2.109   4.618   3.094  1.5107 -1.2946 -0.3680
  990WAT      O 3180   3.649   1.727   3.860  0.2194 -0.4678  0.0723
  990WAT     H1 3181   3.570   1.731   3.807  1.1312  0.5622 -1.2629
  990WAT     H2 3182   3.700   1.804   3.835  2.5186 -2.0503 -0.5527
  991WAT      O 3183   2.213   1.292   0.011 -0.9765  0.0382  0.0766
  991WAT     H1 3184   2.276   1.242   0.063 -0.9440 -0.3881 -0.3667
  991WAT     H2 3185   2.210   1.378   0.053 -0.7146 -0.2021  0.5900
  992WAT      O 3186   3.934   0.759   0.939  0.0311  0.2317 -0.3665
  992WAT     H1 3187   3.981   0.676   0.930 -1.5340 -0.6833 -0.3595
  992WAT     H2 3188   3.876   0.746   1.014 -1.9717  0.4566 -1.8071
  993WAT      O 3189   2.551   0.030   3.434  0.0640 -0.6426  0.0692
  993WAT     H1 3190   2.541   0.106   3.376 -0.8523 -1.4261 -0.8233
  993WAT     H2 3191   2.543   0.067   3.522 -2.4717  0.0816 -0.3624
  994WAT      O 3192   3.212   2.068   1.914 -0.3791 -0.2254  0.3980
  994WAT     H1 3193   3.159   2.064   1.994 -0.2212  0.2855  0.5341
  994WAT     H2 3194   3.290   2.116   1.940  1.0167 -2.4935  0.6706
  995WAT      O 3195   2.498   2.048   2.727 -0.5853  0.0104 -0.0908
  995WAT     H1 3196   2.565   2.075   2.790  1.0556 -2.3661 -0.6802
  995WAT     H2 3197   2.530   2.079   2.643  0.5564 -2.2405 -0.5599
  996WAT      O 3198   2.582   1.638   2.259  0.3320  0.1170  0.6519
  996WAT     H1 3199   2.648   1.584   2.216  0.3459  1.7186 -1.4994
  996WAT     H2 3200   2.626   1.672   2.337  1.4522 -0.2410  0.1882
  997WAT      O 3201   4.825   3.393   0.693 -0.3549 -0.0092  0.3515
  997WAT     H1 3202   4.878   3.430   0.763 -1.9037 -0.5209  1.8558
  997WAT     H2 3203   4.782   3.317   0.733 -2.0911  0.2945 -0.8344
  998WAT      O 3204   2.363   2.084   4.314 -0.2125 -0.0037 -0.3364
  998WAT     H1 3205   2.285   2.129   4.282 -0.0089  1.0118  0.5536
  998WAT     H2 3206   2.337   1.992   4.319 -1.4583  0.3581  0.2466
  999WAT      O 3207   3.323   2.047   1.642 -0.0575 -0.0572  0.3277
  999WAT     H1 3208   3.338   2.038   1.736 -0.3086 -0.1883  0.3582
  999WAT     H2 3209   3.410   2.039   1.602  0.3544  2.2158  0.6834
 1000WAT      O 3210   2.256   2.837   2.084 -0.5327  0.2628 -0.3197
 1000WAT     H1 3211   2.305   2.818   2.005 -0.4179  1.5189 -0.5699
 1000WAT     H2 3212   2.196   2.763   2.093 -0.9449  0.3704 -1.8945
 1001WAT      O 3213   2.260   2.894   1.121  0.2674 -0.6024  0.3606
 1001WAT     H1 3214   2.202   2.852   1.058 -1.5284  2.1087  0.0653
 1001WAT     H2 3215   2.239   2.853   1.204  0.0649 -1.6887 -0.2097
 1002WAT      O 3216   2.094   3.481   0.295  0.0271 -0.3082 -0.4905
 1002WAT     H1 3217   2.041   3.492   0.216 -0.8607 -2.3392 -0.2481
 1002WAT     H2 3218   2.179   3.449   0.263 -0.7315 -2.3370 -0.6143
 1003WAT      O 3219   0.013   2.624   1.765  0.2870  0.1871  0.4466
 1003WAT     H1 3220   0.028   2.665   1.850  0.1198  0.9554  0.1070
 1003WAT     H2 3221   0.083   2.658   1.709 -0.0109  0.2218  0.0902
 1004WAT      O 3222   3.831   2.184   2.229 -0.2225  0.1810  0.2279
 1004WAT     H1 3223   3.893   2.245   2.187 -0.8066  0.1633 -0.6986
 1004WAT     H2 3224   3.859   2.180   2.320 -0.1723  1.8513  0.3111
 1005WAT      O 3225   3.336   0.908   2.564 -0.0628  0.0511 -0.4953
 1005WAT     H1 3226   3.265   0.849   2.589  0.0195  0.0065 -0.3638
 1005WAT     H2 3227   3.356   0.884   2.474  1.2349 -1.4223  0.1178
 1006WAT      O 3228   3.051   5.562   1.459  0.0468 -0.2478  0.0499
 1006WAT     H1 3229   3.090   5.507   1.527  0.0990 -2.3889 -1.5802
 1006WAT     H2 3230   3.063   5.511   1.379 -0.2919  2.0358 -1.5163
 1007WAT      O 3231   3.375   0.320   2.100 -0.4782  0.0724 -0.4898
 1007WAT     H1 3232   3.441   0.362   2.045 -0.4954  1.0623  0.2176
 1007WAT     H2 3233   3.300   0.381   2.098 -0.1887  0.5383  1.2475
 1008WAT      O 3234   4.117   1.117   2.021  0.5585  0.5960 -0.6307
 1008WAT     H1 3235   4.080   1.204   2.003 -0.4169  0.6608  1.4025
 1008WAT     H2 3236   4.135   1.118   2.115  2.4732 -0.7209 -0.9209
 1009WAT      O 3237   2.504   0.168   1.403  0.3859  0.0915  1.1255
 1009WAT     H1 3238   2.507   0.262   1.385 -0.4723  0.3687  2.3331
 1009WAT     H2 3239   2.470   0.161   1.492  0.7295 -1.3604  1.1747
 1010WAT      O 3240   4.431   0.905   2.972 -0.4456  0.6312 -0.8355
 1010WAT     H1 3241   4.425   0.896   3.067 -2.1114  0.0753 -0.9490
 1010WAT     H2 3242   4.462   0.821   2.941 -1.4816  0.2483 -0.8738
 1011WAT      O 3243   3.703   0.472   3.316  0.1979  0.2372 -0.3773
 1011WAT     H1 3244   3.780   0.438   3.362 -0.6693  1.0068  1.7840
 1011WAT     H2 3245   3.739   0.518   3.240  1.6890 -1.3531 -0.6855
 1012WAT      O 3246   1.988   0.342   4.564 -0.2983  0.3639  0.0809
 1012WAT     H1 3247   2.072   0.382   4.545 -0.8287  2.2056  1.3438
 1012WAT     H2 3248   2.009   0.252   4.589  1.0524  0.1317 -1.6639
 1013WAT      O 3249   3.716   1.759   3.502 -0.2719 -0.0881 -0.9188
 1013WAT     H1 3250   3.654   1.778   3.431 -0.0790  0.9579 -0.8143
 1013WAT     H2 3251   3.712   1.836   3.559 -0.4504 -0.9292  0.2422
 1014WAT      O 3252   2.876   4.062   3.813  0.0027  0.0492  0.2207
 1014WAT     H1 3253   2.844   4.064   3.722 -0.4622 -2.1204  0.2652
 1014WAT     H2 3254   2.937   4.135   3.819 -0.1195  0.3746 -1.7932
 1015WAT      O 3255   0.842   3.125   0.306 -0.5344 -0.1311  0.1240
 1015WAT     H1 3256   0.874   3.041   0.340 -2.2500 -2.2624 -3.0716
 1015WAT     H2 3257   0.748   3.125   0.326 -0.9778 -0.0433 -1.7703
 1016WAT      O 3258   1.417   4.198   5.558  0.0595 -0.1028 -0.6558
 1016WAT     H1 3259   1.479   4.178   5.628  1.4694 -2.1157 -2.3637
 1016WAT     H2 3260   1.362   4.120   5.552 -1.4032  0.8688 -0.4974
 1017WAT      O 3261   0.736   1.920   4.037  0.0170 -0.2042 -0.5089
 1017WAT     H1 3262   0.644   1.894   4.028 -0.3963  1.0233  0.0266
 1017WAT     H2 3263   0.749   1.987   3.970  0.0102  0.9015  0.5682
 1018WAT      O 3264   2.496   3.418   1.987 -0.2620 -0.1596  0.6796
 1018WAT     H1 3265   2.532   3.379   2.067 -0.8327  0.4271  1.2455
 1018WAT     H2 3266   2.410   3.451   2.015 -0.9806 -1.0031 -0.4762
 1019WAT      O 3267   0.875   4.275   3.519 -0.3470 -0.8565 -0.1358
 1019WAT     H1 3268   0.797   4.239   3.478 -3.2630  2.6781  1.7677
 1019WAT     H2 3269   0.870   4.245   3.610  1.1102 -1.3982 -0.2118
 1020WAT      O 3270   3.487   5.338   1.339  0.3543 -0.0325 -0.0984
 1020WAT     H1 3271   3.441   5.421   1.348 -0.6764 -0.1626 -2.8746
 1020WAT     H2 3272   3.541   5.330   1.417  0.7049  3.3715  0.1200
 1021WAT      O 3273   3.230   1.291   3.488 -0.3145  0.5400 -0.4610
 1021WAT     H1 3274   3.245   1.266   3.397  3.2436  0.7051 -0.0486
 1021WAT     H2 3275   3.275   1.224   3.539 -0.3944  1.6093  1.0966
 1022WAT      O 3276   0.315   3.323   0.988 -0.2677  0.4060  0.3445
 1022WAT     H1 3277   0.350   3.312   0.900  0.0988 -2.2954  0.7656
 1022WAT     H2 3278   0.359   3.401   1.021  1.5053  0.0269 -0.9698
 1023WAT      O 3279   3.848   0.004   5.513 -0.3990  0.6244  0.1231
 1023WAT     H1 3280   3.876  -0.084   5.490  0.6110  1.3559 -1.6480
 1023WAT     H2 3281   3.882   0.018   5.601  3.3110  0.7794 -1.1873
 1024WAT      O 3282   3.604   1.387   0.943 -0.2177 -0.1764 -0.5146
 1024WAT     H1 3283   3.597   1.292   0.948  2.9173 -0.4945 -0.2342
 1024WAT     H2 3284   3.606   1.416   1.034  0.3197 -0.0327 -0.5657
 1025WAT      O 3285   2.798   5.507   4.438 -0.0901 -0.3915 -0.4808
 1025WAT     H1 3286   2.870   5.507   4.375 -0.0773 -0.3061 -0.4661
 1025WAT     H2 3287   2.725   5.467   4.390 -0.2594  0.2524 -0.7593
 1026WAT      O 3288   1.830   1.129   1.433 -0.1671  0.2992 -0.4495
 1026WAT     H1 3289   1.775   1.207   1.421 -2.7598 -1.4364 -0.7977
 1026WAT     H2 3290   1.842   1.095   1.344  1.4218  0.5551 -0.3600
 1027WAT      O 3291   1.013   3.515   5.334  0.4773 -0.6090 -0.2208
 1027WAT     H1 3292   1.002   3.445   5.398 -0.0564 -0.0510  0.3158
 1027WAT     H2 3293   1.038   3.470   5.253 -1.5286 -1.6036 -0.3582
 1028WAT      O 3294   3.087   0.631   2.968 -0.5183  0.0550  0.3216
 1028WAT     H1 3295   3.112   0.539   2.962 -0.3802  0.1356 -0.4352
 1028WAT     H2 3296   3.110   0.656   3.058 -0.0746 -0.5075  0.3728
 1029WAT      O 3297   3.493   2.467   2.836 -0.3293 -0.1851 -0.0681
 1029WAT     H1 3298   3.399   2.468   2.850 -0.7318 -3.5226 -1.7339
 1029WAT     H2 3299   3.504   2.433   2.748  2.4768  0.3601 -0.0258
 1030WAT      O 3300   4.371   1.736   5.446  0.1024 -0.1056  0.1979
 1030WAT     H1 3301   4.302   1.671   5.457 -0.2686  0.0812 -0.8967
 1030WAT     H2 3302   4.448   1.685   5.419 -0.4504 -0.0477 -1.6789
 1031WAT      O 3303   3.809   2.699   3.184 -0.3068 -0.1568  0.3057
 1031WAT     H1 3304   3.742   2.671   3.247 -0.2439 -2.4135 -0.5321
 1031WAT     H2 3305   3.761   2.708   3.101  0.0786  0.1701  0.1165
 1032WAT      O 3306   2.784   1.017   4.197 -0.0749 -0.0751 -0.1932
 1032WAT     H1 3307   2.730   1.074   4.251  1.3219  0.4494  0.7177
 1032WAT     H2 3308   2.821   0.953   4.258 -0.7510 -1.2941 -1.0219
 1033WAT      O 3309   2.744   5.277   3.400 -0.1102 -0.3591  0.1175
 1033WAT     H1 3310   2.747   5.184   3.421 -1.2304 -1.0416 -2.3411
 1033WAT     H2 3311   2.671   5.311   3.452 -0.6561 -1.1978 -0.0840
 1034WAT      O 3312   4.349   2.595   4.218  0.0712 -0.2754  0.0366
 1034WAT     H1 3313   4.364   2.686   4.193 -0.1901 -0.2014  0.1397
 1034WAT     H2 3314   4.343   2.548   4.135 -1.5813  0.0921 -0.1048
 1035WAT      O 3315   0.320   1.202   0.521  0.5526  0.6817  0.2349
 1035WAT     H1 3316   0.311   1.295   0.500  1.7670  0.4245 -1.6586
 1035WAT     H2 3317   0.255   1.187   0.589 -0.2161  2.7451  0.0391
 1036WAT      O 3318   3.774   3.762   4.202  0.0532 -0.2630  0.3743
 1036WAT     H1 3319   3.864   3.778   4.175  0.0501 -0.9706 -0.0815
 1036WAT     H2 3320   3.728   3.741   4.121 -0.6726  0.7381  0.5154
 1037WAT      O 3321   2.071   1.649   3.185 -0.4384 -0.1224  0.0863
 1037WAT     H1 3322   2.005   1.656   3.117 -0.4451 -0.3162  0.0703
 1037WAT     H2 3323   2.091   1.739   3.210  0.1619 -0.0167 -0.7481
 1038WAT      O 3324   1.824   4.571   2.483  0.4417 -0.0536  0.6644
 1038WAT     H1 3325   1.906   4.619   2.497  1.7905 -1.9410 -0.2599
 1038WAT     H2 3326   1.792   4.604   2.399  2.4215 -1.9835 -0.9996
 1039WAT      O 3327   3.243   2.469   4.539  0.2589  0.3394 -0.0619
 1039WAT     H1 3328   3.190   2.518   4.602  0.3750 -0.4418  0.6717
 1039WAT     H2 3329   3.274   2.534   4.476 -1.0919  0.9013 -0.1702
 1040WAT      O 3330   3.674   4.523   0.349  0.3667 -0.0564  0.1970
 1040WAT     H1 3331   3.632   4.440   0.325  1.7278 -0.5632 -0.5762
 1040WAT     H2 3332   3.713   4.505   0.435 -0.4596  0.2230  0.6395
 1041WAT      O 3333   3.816   1.924   3.710 -0.2401 -0.3588  0.2727
 1041WAT     H1 3334   3.882   1.886   3.652 -0.1822 -1.5948  1.1023
 1041WAT     H2 3335   3.855   2.005   3.742  0.1367 -0.1817 -0.6005
 1042WAT      O 3336   2.589   5.306   2.819 -0.3912  0.1243 -0.1194
 1042WAT     H1 3337   2.532   5.289   2.894  1.3862  2.1026  1.8618
 1042WAT     H2 3338   2.678   5.295   2.854  0.5383  2.5576 -1.4822
 1043WAT      O 3339   1.235   3.166   2.095 -0.0155 -0.1627 -0.5404
 1043WAT     H1 3340   1.311   3.160   2.038  0.7672  1.8394  0.1973
 1043WAT     H2 3341   1.160   3.153   2.037  0.8463 -1.2516 -1.4380
 1044WAT      O 3342   1.509   2.271   1.697  0.2093  0.1273 -0.0467
 1044WAT     H1 3343   1.432   2.238   1.650  0.9708  0.2526 -1.4455
 1044WAT     H2 3344   1.473   2.326   1.766 -0.9588  1.9042 -1.9597
 1045WAT      O 3345   2.103   1.223   1.494  0.3034 -0.4696  0.2825
 1045WAT     H1 3346   2.023   1.176   1.469  0.9030 -0.7822 -1.1077
 1045WAT     H2 3347   2.099   1.225   1.590 -1.2437 -0.6953  0.2630
 1046WAT      O 3348   4.414   2.946   3.856  0.0928  0.2549  0.1684
 1046WAT     H1 3349   4.448   2.857   3.840 -0.1333  0.3026 -0.6222
 1046WAT     H2 3350   4.337   2.932   3.910  3.0992  0.3332  5.0913
 1047WAT      O 3351   3.412   2.021   2.593  0.5371 -0.2443  0.2460
 1047WAT     H1 3352   3.331   1.978   2.566 -0.4499  2.5986 -1.8741
 1047WAT     H2 3353   3.398   2.043   2.685 -0.7864 -0.4650  0.1098
 1048WAT      O 3354   3.244   1.033   3.613 -0.4310 -0.1399  0.1945
 1048WAT     H1 3355   3.202   0.987   3.540 -0.7578 -1.5655  1.2479
 1048WAT     H2 3356   3.173   1.052   3.674 -0.4730  2.6025 -0.5391
 1049WAT      O 3357   3.081   1.493   2.576  0.0191 -0.5517 -0.0234
 1049WAT     H1 3358   3.003   1.500   2.631 -0.5542  0.7917 -0.9411
 1049WAT     H2 3359   3.152   1.528   2.630 -0.3330 -0.2278  0.2333
 1050WAT      O 3360   3.232   5.511   1.987  0.3434 -0.2712  0.5330
 1050WAT     H1 3361   3.322   5.498   2.017  1.0009  0.9817 -0.7542
 1050WAT     H2 3362   3.237   5.503   1.892 -1.5257 -3.3329  0.5557
 1051WAT      O 3363   3.714   1.051   3.174 -0.3159  0.5725 -0.4568
 1051WAT     H1 3364   3.705   1.131   3.122  0.6487  1.8748  1.2999
 1051WAT     H2 3365   3.789   1.006   3.135 -0.7324  0.6145 -1.3278
 1052WAT      O 3366   3.583   5.077   4.533 -0.5828  0.4090  0.5063
 1052WAT     H1 3367   3.663   5.092   4.584 -0.8274 -2.1009  1.7816
 1052WAT     H2 3368   3.573   4.982   4.532 -2.3298  0.5332 -1.6073
 1053WAT      O 3369   4.227   1.257   2.791  0.2269  0.0707 -0.2963
 1053WAT     H1 3370   4.151   1.312   2.810  0.1698  0.4876 -1.6070
 1053WAT     H2 3371   4.277   1.255   2.873 -2.1676 -1.8543  1.2454
 1054WAT      O 3372   4.538   1.294   1.815  0.5201 -0.3225 -0.4154
 1054WAT     H1 3373   4.457   1.339   1.791  0.2599 -0.8536 -0.5538
 1054WAT     H2 3374   4.521   1.262   1.904  0.8833  0.2650 -0.1326
 1055WAT      O 3375   3.673   4.630   1.572 -0.1654  0.0920  0.3963
 1055WAT     H1 3376   3.590   4.624   1.524  0.4076  2.1006 -0.9538
 1055WAT     H2 3377   3.710   4.542   1.567 -1.8077 -0.6373  0.3191
 1056WAT      O 3378   4.316   3.235   2.102 -1.0777  1.0689  0.1865
 1056WAT     H1 3379   4.375   3.308   2.086  1.5770 -0.9683 -0.1071
 1056WAT     H2 3380   4.336   3.207   2.192 -1.9463  0.6310  0.2569
 1057WAT      O 3381   2.762   2.377   2.664  0.2008 -0.3452 -0.2343
 1057WAT     H1 3382   2.793   2.301   2.714 -0.8181  0.4910  1.7968
 1057WAT     H2 3383   2.746   2.444   2.731  0.8850  1.6141 -1.9524
 1058WAT      O 3384   3.693   2.370   0.162  0.0589 -0.0138  0.7417
 1058WAT     H1 3385   3.627   2.398   0.226  0.7109  1.0268  0.9822
 1058WAT     H2 3386   3.674   2.277   0.148  0.2711 -0.4454  2.9231
 1059WAT      O 3387   4.817   1.774   2.673 -0.0980  0.1945  0.3230
 1059WAT     H1 3388   4.761   1.840   2.631 -1.0491 -0.3889  0.6425
 1059WAT     H2 3389   4.788   1.691   2.635  1.0399 -0.0663 -0.0211
 1060WAT      O 3390   4.718   2.695   2.194 -0.4370 -0.1404 -0.1237
 1060WAT     H1 3391   4.721   2.666   2.103  2.0013 -0.4850  0.0201
 1060WAT     H2 3392   4.714   2.615   2.246 -1.3217  0.0432  0.1221
 1061WAT      O 3393   1.919   1.476   4.168 -0.8517  0.4392 -0.0834
 1061WAT     H1 3394   1.856   1.490   4.097 -0.9831 -1.3139 -0.3529
 1061WAT     H2 3395   1.867   1.440   4.240 -0.2088 -0.9591 -0.2799
 1062WAT      O 3396   2.703   0.992   1.425 -0.8577  0.3076  0.1247
 1062WAT     H1 3397   2.721   0.900   1.403  0.2533  0.6072 -0.2625
 1062WAT     H2 3398   2.702   0.994   1.520  0.0290  0.0514  0.1478
 1063WAT      O 3399   4.639   1.818   4.681  0.5793  0.1843 -0.3590
 1063WAT     H1 3400   4.732   1.797   4.691  0.6975  1.0126  0.3757
 1063WAT     H2 3401   4.617   1.868   4.759 -0.5110 -0.0545 -0.4896
 1064WAT      O 3402   2.746   1.323   1.914  0.4976  0.1806 -0.4046
 1064WAT     H1 3403   2.821   1.383   1.910  0.5702  0.1194 -0.0702
 1064WAT     H2 3404   2.727   1.317   2.008  0.3712 -0.1734 -0.4541
 1065WAT      O 3405   4.128   2.305   3.584  0.1597 -0.3961 -0.0402
 1065WAT     H1 3406   4.182   2.248   3.530  0.0537 -2.1282  1.5618
 1065WAT     H2 3407   4.182   2.383   3.600  1.3969 -1.2247 -0.0812
 1066WAT      O 3408   1.215   1.987   4.817  0.4096  0.0639  0.2103
 1066WAT     H1 3409   1.255   2.072   4.835  0.0334  0.4171 -0.5867
 1066WAT     H2 3410   1.218   1.941   4.901  2.5391  0.0512  0.2044
 1067WAT      O 3411   2.638   4.688   3.533  0.7435  0.0399 -0.1608
 1067WAT     H1 3412   2.606   4.610   3.578  0.8930 -1.1648 -1.9964
 1067WAT     H2 3413   2.561   4.744   3.523  0.0160 -1.0814 -1.1101
 1068WAT      O 3414   3.743   0.724   1.168  0.3078 -0.0387 -0.3300
 1068WAT     H1 3415   3.708   0.756   1.251  2.3724  0.5922  0.3637
 1068WAT     H2 3416   3.782   0.639   1.190  1.6984  0.5526 -0.3973
 1069WAT      O 3417   0.255   1.916   5.660  0.0781  0.3623 -0.1268
 1069WAT     H1 3418   0.292   1.828   5.656 -0.1794  0.2794 -2.4079
 1069WAT     H2 3419   0.162   1.904   5.640  0.5301  1.2915 -3.5511
 1070WAT      O 3420   3.445   1.199   3.311  0.3874  0.2323 -0.6931
 1070WAT     H1 3421   3.426   1.113   3.273 -0.4215 -0.3454  0.8873
 1070WAT     H2 3422   3.508   1.181   3.381 -0.5305  0.7482  0.3017
 1071WAT      O 3423   2.915   1.694   3.364  0.1217 -0.5834 -0.4446
 1071WAT     H1 3424   2.940   1.629   3.298 -0.8720 -0.9390 -0.4905
 1071WAT     H2 3425   2.969   1.673   3.440  1.5531  0.0672 -1.2481
 1072WAT      O 3426   4.476   2.696   2.896 -0.3161  0.1723 -0.1165
 1072WAT     H1 3427   4.504   2.763   2.834 -0.3186 -0.8896 -1.2997
 1072WAT     H2 3428   4.540   2.626   2.885 -0.8667 -0.4222  0.4109
 1073WAT      O 3429   3.022   1.039   1.773  0.1869  0.4473  0.0865
 1073WAT     H1 3430   2.930   1.028   1.750  0.4935 -0.3024 -0.8592
 1073WAT     H2 3431   3.064   1.066   1.691  1.1209 -1.1305  0.0121
 1074WAT      O 3432   3.931   1.157   4.014 -0.2622 -0.0241 -0.1103
 1074WAT     H1 3433   3.883   1.187   4.091 -0.4284 -1.2574  0.2896
 1074WAT     H2 3434   3.997   1.097   4.048 -0.3869 -0.6441 -0.9186
 1075WAT      O 3435   3.534   1.938   1.259  0.7171 -0.0210  0.4331
 1075WAT     H1 3436   3.570   1.850   1.271  0.0447 -0.1732  1.5034
 1075WAT     H2 3437   3.447   1.933   1.297  0.4706  0.9751  0.0203
 1076WAT      O 3438   3.307   0.229   3.172  0.0367 -0.3372 -0.0362
 1076WAT     H1 3439   3.251   0.180   3.232  1.0652 -1.5027  0.0222
 1076WAT     H2 3440   3.342   0.301   3.224 -1.6213  0.5993 -0.1618
 1077WAT      O 3441   3.520   0.432   5.210  0.4256 -0.3756 -0.0926
 1077WAT     H1 3442   3.564   0.354   5.177  0.2670 -0.5725  0.1619
 1077WAT     H2 3443   3.590   0.488   5.243  0.6992  0.2727 -1.6589
 1078WAT      O 3444   3.151   5.331   4.836  0.0277  0.4978 -0.8427
 1078WAT     H1 3445   3.069   5.291   4.806  0.2182 -0.7546  0.1882
 1078WAT     H2 3446   3.218   5.265   4.816  0.5169  0.7410 -0.0505
 1079WAT      O 3447   3.829   1.377   1.332 -0.9040 -0.0221 -0.4584
 1079WAT     H1 3448   3.790   1.293   1.355  0.2379 -0.5737 -0.4758
 1079WAT     H2 3449   3.899   1.390   1.396  2.2044 -1.4955 -3.2764
 1080WAT      O 3450   2.902   1.680   0.681  0.3756  0.1457  0.1696
 1080WAT     H1 3451   2.969   1.624   0.641  0.4198 -0.1191  0.6063
 1080WAT     H2 3452   2.823   1.626   0.681 -0.1101  0.8069 -1.2586
 1081WAT      O 3453   4.768   2.037   5.543  0.0399  0.3543  0.0105
 1081WAT     H1 3454   4.712   2.028   5.620  0.0235  0.5193  0.0195
 1081WAT     H2 3455   4.780   1.948   5.511 -1.1953  0.4053 -0.6770
 1082WAT      O 3456   1.033   2.088   1.780  0.5849 -0.0858 -0.1421
 1082WAT     H1 3457   0.986   2.005   1.791  0.9407 -0.3568 -0.6652
 1082WAT     H2 3458   1.123   2.068   1.808 -0.0168  0.9558  2.9340
 1083WAT      O 3459   1.879   2.122   1.996 -1.1013  0.0003 -0.2775
 1083WAT     H1 3460   1.869   2.027   1.997  0.6393 -0.2231  1.2903
 1083WAT     H2 3461   1.839   2.150   1.914  1.1151 -2.4202 -2.3416
 1084WAT      O 3462   2.093   3.039   0.098 -0.7268  0.0037 -0.2803
 1084WAT     H1 3463   2.171   3.068   0.050 -0.6673  0.9163  0.3449
 1084WAT     H2 3464   2.082   2.947   0.073  0.5979 -0.1595 -0.3039
 1085WAT      O 3465   3.247   0.783   4.254  0.2007 -0.7421  0.2057
 1085WAT     H1 3466   3.219   0.872   4.232  0.6881 -1.1412 -2.2784
 1085WAT     H2 3467   3.324   0.796   4.309 -0.7163  0.3246  1.3199
 1086WAT      O 3468   2.976   1.240   2.387 -0.0972 -0.2445  0.8805
 1086WAT     H1 3469   3.047   1.205   2.332 -1.6177 -2.3306  0.1176
 1086WAT     H2 3470   2.984   1.192   2.470 -0.7692 -0.6947  0.6904
 1087WAT      O 3471   4.011   2.562   5.308  0.2367  0.1113  0.5160
 1087WAT     H1 3472   4.084   2.500   5.322  0.0171  0.2090  2.3003
 1087WAT     H2 3473   3.955   2.551   5.385 -0.0551  2.2015  0.6582
 1088WAT      O 3474   3.598   2.600   3.363 -0.4143 -0.0711  0.0788
 1088WAT     H1 3475   3.602   2.510   3.329  0.9970 -0.2233  0.5788
 1088WAT     H2 3476   3.522   2.638   3.319  1.4804 -0.0997 -3.6582
 1089WAT      O 3477   2.034   0.148   2.950  0.3832  0.2617 -0.2265
 1089WAT     H1 3478   2.111   0.176   3.000  0.9152 -3.6781  1.5185
 1089WAT     H2 3479   1.960   0.185   2.997  1.0428  2.0027 -0.4596
 1090WAT      O 3480   2.347   0.738   0.367 -0.2164  0.3544  0.2460
 1090WAT     H1 3481   2.310   0.691   0.442  1.6631 -1.7923 -0.0564
 1090WAT     H2 3482   2.431   0.771   0.399  0.7146 -0.7920 -0.9467
 1091WAT      O 3483   4.307   1.412   2.570 -0.8713 -0.1099 -0.3055
 1091WAT     H1 3484   4.294   1.351   2.643 -1.2899  0.7238  0.3409
 1091WAT     H2 3485   4.378   1.469   2.600 -2.3743  1.5224  0.3663
 1092WAT      O 3486   2.354   1.143   0.188  0.2258 -0.1401  0.0162
 1092WAT     H1 3487   2.377   1.051   0.187  0.6461 -0.0517 -1.9511
 1092WAT     H2 3488   2.406   1.180   0.259  1.0262 -1.1725 -0.0188
 1093WAT      O 3489   0.828   2.594   1.677 -0.3059 -0.7185 -0.1834
 1093WAT     H1 3490   0.875   2.525   1.723 -0.2347  0.0753  0.9545
 1093WAT     H2 3491   0.895   2.658   1.655 -0.2876 -1.2029 -1.6659
 1094WAT      O 3492   0.028   4.263   3.008  0.1886 -0.4279  1.0171
 1094WAT     H1 3493   0.035   4.321   3.083 -1.1183  0.5840  0.3943
 1094WAT     H2 3494   0.073   4.183   3.035 -0.1841 -0.0632  2.8476
 1095WAT      O 3495   4.372   3.037   5.022 -0.3279  0.3721 -0.1824
 1095WAT     H1 3496   4.410   3.116   4.985 -0.9463  0.2694 -1.0754
 1095WAT     H2 3497   4.278   3.055   5.027 -0.5440 -0.4755 -0.8852
 1096WAT      O 3498   3.988   2.687   3.973 -0.0540 -0.2545  0.1220
 1096WAT     H1 3499   4.038   2.621   3.925 -0.5300 -0.5138 -0.0244
 1096WAT     H2 3500   3.897   2.659   3.964 -0.3864  1.0028 -0.8822
 1097WAT      O 3501   0.011   1.097   0.887  0.2203 -0.1850  0.1035
 1097WAT     H1 3502   0.079   1.149   0.843 -0.0930  0.0567 -0.1020
 1097WAT     H2 3503  -0.041   1.162   0.935 -0.4727 -0.2400 -0.5485
 1098WAT      O 3504   3.522   4.928   2.871  0.3271 -0.1507 -0.0955
 1098WAT     H1 3505   3.427   4.919   2.862  0.2764  0.5451 -0.3200
 1098WAT     H2 3506   3.554   4.935   2.781  0.3818  1.5022  0.0287
 1099WAT      O 3507   1.224   3.364   1.746 -0.6637 -0.2977 -0.3545
 1099WAT     H1 3508   1.160   3.362   1.676  0.6950 -0.7684 -1.6387
 1099WAT     H2 3509   1.271   3.281   1.738 -0.2273 -0.2016  0.8837
 1100WAT      O 3510   3.935   1.594   1.934  0.1018  0.5073 -0.3065
 1100WAT     H1 3511   3.950   1.569   2.025  0.4117 -2.4619 -1.0785
 1100WAT     H2 3512   4.011   1.648   1.911  0.0378  1.2653  1.1289
 1101WAT      O 3513   3.528   1.630   0.555 -0.0092  0.0959  0.0103
 1101WAT     H1 3514   3.499   1.673   0.635  0.1607 -1.2803  0.8539
 1101WAT     H2 3515   3.490   1.681   0.484 -0.8446  0.8640  0.9892
 1102WAT      O 3516   2.984   2.513   1.793 -0.4657  0.4217  0.2893
 1102WAT     H1 3517   2.942   2.494   1.710  1.4830  2.9179 -1.4235
 1102WAT     H2 3518   3.077   2.520   1.772  0.1737  0.5598  2.8090
 1103WAT      O 3519   4.019   1.365   1.541 -0.1474  0.1021  0.5946
 1103WAT     H1 3520   4.047   1.279   1.574 -0.3914 -0.0442  0.4283
 1103WAT     H2 3521   4.078   1.427   1.583  2.5525 -0.4128 -2.0864
 1104WAT      O 3522   4.861   4.027   4.974 -0.4198 -0.0462  0.2587
 1104WAT     H1 3523   4.821   3.985   5.050 -0.4743 -0.9114 -0.2308
 1104WAT     H2 3524   4.798   4.096   4.949 -1.2205 -0.8485  0.0026
 1105WAT      O 3525   1.500   4.575   2.364 -0.2559 -0.1781 -0.3362
 1105WAT     H1 3526   1.419   4.624   2.356  0.2401  0.4571 -1.7551
 1105WAT     H2 3527   1.529   4.590   2.454 -1.0832  0.5776 -0.1880
 1106WAT      O 3528   2.969   2.416   0.103 -0.5651  0.5309  0.0858
 1106WAT     H1 3529   3.029   2.350   0.139 -1.0032 -0.1798 -0.4487
 1106WAT     H2 3530   2.893   2.413   0.160  0.6942  2.9397  2.0530
 1107WAT      O 3531   3.218   2.185   2.816  0.1034  0.4353  0.0908
 1107WAT     H1 3532   3.179   2.126   2.880  0.5540 -1.7600 -1.5236
 1107WAT     H2 3533   3.303   2.207   2.852 -0.3027  0.5923  0.9825
 1108WAT      O 3534   3.489   0.590   2.432 -0.7081 -0.2900 -0.1418
 1108WAT     H1 3535   3.503   0.617   2.523 -3.1563 -2.3871  1.0035
 1108WAT     H2 3536   3.413   0.640   2.404 -0.7258 -0.5535 -0.5725
 1109WAT      O 3537   1.442   3.582   5.767  0.6466  0.0648 -0.1358
 1109WAT     H1 3538   1.466   3.659   5.715  0.3032  0.9015  0.9086
 1109WAT     H2 3539   1.465   3.507   5.711 -0.4299  0.9279 -1.8095
 1110WAT      O 3540   2.581   4.639   5.596  0.2028 -0.1745  0.4666
 1110WAT     H1 3541   2.673   4.664   5.583 -0.5013  2.1105 -0.8284
 1110WAT     H2 3542   2.554   4.688   5.674 -0.4444  0.9882 -0.4431
 1111WAT      O 3543   4.031   0.630   1.504 -0.6623 -0.1643  0.1778
 1111WAT     H1 3544   4.107   0.618   1.561 -0.2117 -1.3809 -0.6453
 1111WAT     H2 3545   3.994   0.714   1.532  0.1237 -0.2436  1.5727
 1112WAT      O 3546   0.849   1.842   1.791 -0.0290 -0.2517  0.0393
 1112WAT     H1 3547   0.843   1.776   1.860 -0.0039 -1.0808 -0.7312
 1112WAT     H2 3548   0.855   1.791   1.710 -2.6611  0.6604 -0.8369
 1113WAT      O 3549   1.312   1.654   0.811  0.1847  0.2183  0.0977
 1113WAT     H1 3550   1.235   1.598   0.822  0.8240 -0.5015  1.0975
 1113WAT     H2 3551   1.311   1.711   0.888  1.1745 -0.4642  0.6402
 1114WAT      O 3552   2.440   2.091   5.632  0.2864 -0.0543 -0.0103
 1114WAT     H1 3553   2.389   2.172   5.623 -0.1130 -0.3872 -0.7855
 1114WAT     H2 3554   2.511   2.100   5.568 -0.7813 -1.0757 -1.3854
 1115WAT      O 3555   2.489   4.559   2.313 -0.2080  0.1728  0.0458
 1115WAT     H1 3556   2.562   4.527   2.366 -1.1319  1.5805  2.3648
 1115WAT     H2 3557   2.469   4.487   2.253  0.7975 -1.6455  1.7707
 1116WAT      O 3558   4.339   2.636   3.106 -0.0029 -0.0488 -0.5416
 1116WAT     H1 3559   4.319   2.720   3.148 -1.6414 -1.5486  1.8929
 1116WAT     H2 3560   4.402   2.659   3.037  0.6043  2.9828  0.8511
 1117WAT      O 3561   0.119   1.673   1.497  0.2573  0.3421 -0.4055
 1117WAT     H1 3562   0.168   1.744   1.539  0.1019  0.3227 -0.1905
 1117WAT     H2 3563   0.034   1.712   1.477  0.0087  0.0850  0.1297
 1118WAT      O 3564   3.652   0.214   2.022  0.7642 -0.4980 -0.0178
 1118WAT     H1 3565   3.704   0.170   2.090 -1.1200 -1.3491  0.9800
 1118WAT     H2 3566   3.667   0.307   2.036  1.5189 -0.7094  0.6437
 1119WAT      O 3567   4.940   3.889   1.634 -0.3693  0.4684 -0.3246
 1119WAT     H1 3568   4.943   3.963   1.695 -1.6486 -1.4276  2.2129
 1119WAT     H2 3569   4.861   3.840   1.659  0.6568 -2.0039 -1.5690
 1120WAT      O 3570   2.751   5.410   0.394 -0.1197  0.1803  0.4902
 1120WAT     H1 3571   2.692   5.344   0.359  0.8024  0.0001 -0.8412
 1120WAT     H2 3572   2.721   5.426   0.483 -2.4971  0.5187 -0.3182
 1121WAT      O 3573   2.865   0.248   3.404  0.1692 -0.2131  0.3166
 1121WAT     H1 3574   2.819   0.310   3.348  0.0366 -1.0508 -0.5318
 1121WAT     H2 3575   2.887   0.175   3.345  1.8654 -0.1919  0.8756
 1122WAT      O 3576   4.949   4.003   4.314  0.2179  0.5227  0.7726
 1122WAT     H1 3577   4.949   4.054   4.395  1.9908  3.3952 -0.8878
 1122WAT     H2 3578   4.888   4.050   4.257 -0.3981 -1.0000  0.1406
 1123WAT      O 3579   0.776   3.174   4.814  0.1463  0.3735  0.1073
 1123WAT     H1 3580   0.816   3.234   4.877 -0.9409  1.6746 -0.4054
 1123WAT     H2 3581   0.806   3.206   4.729 -1.9476  1.4282 -0.3009
 1124WAT      O 3582   3.283   4.160   5.643 -0.4413  0.0654 -0.0593
 1124WAT     H1 3583   3.190   4.184   5.643 -0.0551  1.7112 -0.8435
 1124WAT     H2 3584   3.287   4.080   5.591 -1.5714 -0.7812  1.1035
 1125WAT      O 3585   4.671   3.924   1.366  0.1117  0.3187  0.0341
 1125WAT     H1 3586   4.720   4.001   1.335 -0.5480  0.9777  0.5906
 1125WAT     H2 3587   4.737   3.855   1.374  0.6730  0.7474 -0.7295
 1126WAT      O 3588   1.935   2.800   0.892  0.5967 -1.1262  0.2972
 1126WAT     H1 3589   1.857   2.761   0.931  0.6256 -2.8788 -1.2484
 1126WAT     H2 3590   2.000   2.730   0.894  0.9471 -0.9096 -1.7777
 1127WAT      O 3591   2.957   2.681   0.804 -0.4479  0.3935  0.1406
 1127WAT     H1 3592   2.863   2.659   0.799 -0.6278  1.3144 -0.9341
 1127WAT     H2 3593   2.985   2.645   0.888 -1.4628 -1.0483 -0.0832
 1128WAT      O 3594   0.914   2.254   5.158  0.5827 -0.1454 -0.4178
 1128WAT     H1 3595   0.893   2.225   5.069 -0.3254  0.0994 -0.2866
 1128WAT     H2 3596   0.832   2.249   5.206  0.6659  1.4146 -0.0479
 1129WAT      O 3597   1.749   3.563   1.220 -0.0285 -0.1301  1.0713
 1129WAT     H1 3598   1.757   3.640   1.276  0.4374  0.8798 -0.3404
 1129WAT     H2 3599   1.837   3.525   1.217  0.4697  1.0381 -0.6098
 1130WAT      O 3600   4.048   3.787   5.785 -0.2295 -0.3395 -0.5848
 1130WAT     H1 3601   3.966   3.786   5.736 -0.8772  0.3877  0.4390
 1130WAT     H2 3602   4.096   3.862   5.750 -0.9664  0.5664  0.3039
 1131WAT      O 3603   1.193   2.188   2.685 -0.8773 -0.3528  0.2446
 1131WAT     H1 3604   1.173   2.235   2.765  0.0939  1.5966 -0.5901
 1131WAT     H2 3605   1.276   2.145   2.702 -1.4313 -1.2501  0.7761
 1132WAT      O 3606   2.481   2.460   1.318 -0.2787  0.3274  0.4049
 1132WAT     H1 3607   2.489   2.366   1.299 -1.2340  0.3130  0.0303
 1132WAT     H2 3608   2.553   2.500   1.271  0.3332 -0.2494  0.8262
 1133WAT      O 3609   0.424   1.585   3.420  0.2977  0.0084 -0.1533
 1133WAT     H1 3610   0.388   1.616   3.504  1.4135 -0.8565  0.6783
 1133WAT     H2 3611   0.421   1.490   3.427 -1.0763 -0.1054 -1.7920
 1134WAT      O 3612   4.126   2.092   3.320  0.2147  0.1519  0.0592
 1134WAT     H1 3613   4.112   2.054   3.233 -0.0417 -0.2977  0.2922
 1134WAT     H2 3614   4.199   2.041   3.357  0.2929  0.3111  0.1255
 1135WAT      O 3615   4.239   2.138   0.489  0.1924  0.1857 -0.1923
 1135WAT     H1 3616   4.329   2.111   0.470  0.1547  0.0359 -0.1624
 1135WAT     H2 3617   4.221   2.208   0.425  1.0242  1.6623  1.1346
 1136WAT      O 3618   2.605   3.306   0.269 -0.0642  0.0105  0.3433
 1136WAT     H1 3619   2.614   3.392   0.227 -0.5649 -1.0324 -2.0449
 1136WAT     H2 3620   2.692   3.267   0.261  0.6983  0.9228  3.1084
 1137WAT      O 3621   2.955   1.166   4.406  0.7317 -0.0962 -0.2098
 1137WAT     H1 3622   2.930   1.086   4.452  0.1141  0.5864  0.6964
 1137WAT     H2 3623   2.881   1.225   4.421  1.2538  0.6981 -0.7177
 1138WAT      O 3624   0.466   2.815   1.550 -0.1940 -0.8474  0.1083
 1138WAT     H1 3625   0.494   2.890   1.602  1.6496 -1.4076  0.0106
 1138WAT     H2 3626   0.414   2.853   1.479  1.6461  0.4894 -0.5988
 1139WAT      O 3627   2.598   2.220   0.031 -0.3020  0.5034 -0.1407
 1139WAT     H1 3628   2.517   2.203  -0.017 -0.0450 -0.1364 -0.3551
 1139WAT     H2 3629   2.636   2.296  -0.013 -0.6310  0.6145 -0.2352
 1140WAT      O 3630   0.205   2.731   1.577 -0.0980 -0.1146  0.0886
 1140WAT     H1 3631   0.283   2.767   1.619  0.5236  0.2992 -1.3396
 1140WAT     H2 3632   0.166   2.805   1.532 -1.2486 -0.3554  0.6724
 1141WAT      O 3633   2.763   2.994   5.427  0.0402 -0.7281 -0.2409
 1141WAT     H1 3634   2.746   2.925   5.362 -0.1747 -0.5766 -0.3473
 1141WAT     H2 3635   2.685   2.992   5.483 -0.3966  0.0581 -0.8050
 1142WAT      O 3636   4.703   1.652   3.227  0.8308 -0.0379  0.2884
 1142WAT     H1 3637   4.673   1.563   3.208  2.4586 -0.7201  0.7557
 1142WAT     H2 3638   4.782   1.663   3.173 -0.1669  1.7011 -0.9304
 1143WAT      O 3639   3.998   3.981   1.199  0.2735 -0.2467 -0.6049
 1143WAT     H1 3640   4.082   3.942   1.222  0.3871 -0.2623 -1.0363
 1143WAT     H2 3641   4.001   3.990   1.104 -0.0736  0.0749 -0.5880
 1144WAT      O 3642   2.399   0.461   2.713 -0.1603 -0.0309 -0.6710
 1144WAT     H1 3643   2.401   0.545   2.758 -1.7848  1.0026 -2.4193
 1144WAT     H2 3644   2.322   0.417   2.748  0.5051 -0.7010  0.0025
 1145WAT      O 3645   3.522   0.540   5.715  0.3565 -0.4871 -0.1471
 1145WAT     H1 3646   3.596   0.597   5.732  0.6163 -0.4683 -1.2774
 1145WAT     H2 3647   3.496   0.507   5.802 -0.2482  1.8530  0.6188
 1146WAT      O 3648   4.459   3.987   4.030  0.2219 -0.4148 -0.0716
 1146WAT     H1 3649   4.540   3.959   4.072  0.1397  0.7230  0.9018
 1146WAT     H2 3650   4.425   4.055   4.087 -0.8702 -0.1158 -1.0410
 1147WAT      O 3651   0.076   1.425   2.193 -0.2554  0.1721 -0.0912
 1147WAT     H1 3652   0.095   1.351   2.251 -1.1923 -0.5792 -0.7129
 1147WAT     H2 3653   0.014   1.390   2.129  0.5401  1.0535 -1.3923
 1148WAT      O 3654   2.115   5.009   2.832 -0.5134 -0.2024  0.2475
 1148WAT     H1 3655   2.069   5.001   2.748 -0.9973  1.7707  0.2754
 1148WAT     H2 3656   2.186   4.945   2.826 -1.7092 -1.4815 -0.8543
 1149WAT      O 3657   2.587   3.687   1.969  0.7221 -0.1162  0.1793
 1149WAT     H1 3658   2.571   3.596   1.945 -0.4707  0.3465 -0.9268
 1149WAT     H2 3659   2.661   3.714   1.914  1.6995 -0.6671  1.1969
 1150WAT      O 3660   2.075   0.098   5.671 -0.1585 -0.4110  0.0334
 1150WAT     H1 3661   2.030   0.164   5.723 -3.4703 -2.0497 -0.4807
 1150WAT     H2 3662   2.083   0.137   5.584 -0.9004 -0.1701  0.0666
 1151WAT      O 3663   1.373   1.544   2.133 -0.3148  0.0341 -0.1583
 1151WAT     H1 3664   1.356   1.450   2.124  1.0716 -0.7269  3.3561
 1151WAT     H2 3665   1.355   1.562   2.225 -0.5105  3.2710 -0.7251
 1152WAT      O 3666   2.943   4.723   4.811  0.1620  0.1511 -0.0251
 1152WAT     H1 3667   3.014   4.786   4.824  1.4964 -1.3198  0.1251
 1152WAT     H2 3668   2.980   4.639   4.839 -1.6183 -0.6826 -0.0439
 1153WAT      O 3669   4.060   5.102   5.744  0.0814  0.2953 -0.6292
 1153WAT     H1 3670   4.084   5.094   5.836  0.3554  0.4631 -0.6886
 1153WAT     H2 3671   3.966   5.084   5.743  0.1726 -0.2379 -0.3865
 1154WAT      O 3672   2.774   1.433   1.623  0.2106 -0.1147 -0.3220
 1154WAT     H1 3673   2.765   1.362   1.560 -1.1897 -0.5047  0.2868
 1154WAT     H2 3674   2.774   1.389   1.708 -2.0492  0.6438  0.1480
 1155WAT      O 3675   4.033   0.570   0.140  0.6250  0.3925  1.0554
 1155WAT     H1 3676   3.995   0.654   0.165  0.3083  0.0760  1.6812
 1155WAT     H2 3677   4.126   0.579   0.160  0.3372  0.0308  2.7905
 1156WAT      O 3678   4.091   2.305   4.392  0.5760 -0.3082 -0.4736
 1156WAT     H1 3679   4.170   2.357   4.411  1.3312 -1.4276 -0.4578
 1156WAT     H2 3680   4.119   2.243   4.325 -0.5565 -0.1295 -1.1321
 1157WAT      O 3681   3.979   0.578   3.743  0.4177  0.4383 -0.2132
 1157WAT     H1 3682   4.072   0.598   3.737  0.2629  1.0436 -0.6275
 1157WAT     H2 3683   3.952   0.618   3.826  0.7079 -0.5053  0.3527
 1158WAT      O 3684   3.944   3.416   1.263 -0.0526 -0.3866 -0.3669
 1158WAT     H1 3685   3.878   3.398   1.196 -1.0062 -0.9011  0.6716
 1158WAT     H2 3686   3.962   3.331   1.303  3.5712 -0.8873 -2.6002
 1159WAT      O 3687   0.438   1.419   1.189 -0.1817  0.1157 -0.2228
 1159WAT     H1 3688   0.343   1.404   1.197 -0.1866  0.3734  0.2834
 1159WAT     H2 3689   0.466   1.361   1.119 -0.8239  0.4905 -0.7966
 1160WAT      O 3690   2.138   0.630   4.370  0.8245 -0.6549  0.1491
 1160WAT     H1 3691   2.225   0.590   4.374  0.7403 -1.0163 -1.1882
 1160WAT     H2 3692   2.145   0.696   4.300 -0.0246 -0.8179 -0.1051
 1161WAT      O 3693   1.907   3.933   5.654 -0.1274  0.9925 -0.4780
 1161WAT     H1 3694   1.909   3.931   5.750 -0.6038  1.9620 -0.4348
 1161WAT     H2 3695   1.984   3.984   5.630  0.2782  0.3148 -0.6414
 1162WAT      O 3696   0.564   3.194   0.398 -0.1843  0.3802 -0.1162
 1162WAT     H1 3697   0.628   3.244   0.449 -0.0239  1.2391 -1.1190
 1162WAT     H2 3698   0.480   3.234   0.421 -0.6055 -1.7280  2.3590
 1163WAT      O 3699   2.918   3.793   0.925 -0.3692 -0.2538  0.3030
 1163WAT     H1 3700   2.970   3.821   0.849  1.3359 -0.3639  1.3885
 1163WAT     H2 3701   2.907   3.872   0.977  0.5498 -0.6461  1.1183
 1164WAT      O 3702   4.819   4.249   5.291 -0.4374  0.2899 -0.7893
 1164WAT     H1 3703   4.814   4.192   5.368 -0.5613  0.4528 -0.6751
 1164WAT     H2 3704   4.729   4.278   5.278 -0.5171 -0.1849 -1.3387
 1165WAT      O 3705   2.455   1.780   2.709 -0.8936 -0.2844  0.0359
 1165WAT     H1 3706   2.460   1.763   2.803 -3.1291  1.7522  0.6244
 1165WAT     H2 3707   2.487   1.869   2.699 -1.1562 -0.2973 -1.0522
 1166WAT      O 3708   4.097   4.552   4.432 -0.3000 -0.0346  0.1933
 1166WAT     H1 3709   4.097   4.507   4.347 -0.4521  0.7018 -0.2006
 1166WAT     H2 3710   4.056   4.636   4.415 -2.6803 -0.8446  1.5256
 1167WAT      O 3711   1.418   1.715   5.040  0.2083  0.4592 -0.7315
 1167WAT     H1 3712   1.344   1.775   5.050  0.1231  0.5904 -1.9324
 1167WAT     H2 3713   1.424   1.668   5.123 -0.0303  1.7878  0.0508
 1168WAT      O 3714   2.142   4.702   0.772 -0.0658 -0.5639  0.5768
 1168WAT     H1 3715   2.109   4.779   0.816 -1.0974 -1.8869  2.2019
 1168WAT     H2 3716   2.105   4.628   0.820 -0.7462 -2.1141 -2.1143
 1169WAT      O 3717   0.948   2.090   1.233  0.3722  0.1107  0.5848
 1169WAT     H1 3718   0.871   2.070   1.179  0.2170  0.7927  0.5416
 1169WAT     H2 3719   0.913   2.094   1.322  0.5415 -0.5450  0.6847
 1170WAT      O 3720   4.237   0.685   3.804  0.2114  0.4364  0.2818
 1170WAT     H1 3721   4.190   0.760   3.840  0.3778  0.1428  1.1604
 1170WAT     H2 3722   4.320   0.720   3.772 -0.5203  0.9278 -1.1084
 1171WAT      O 3723   3.378   2.145   5.280 -0.2042  0.0255  0.1030
 1171WAT     H1 3724   3.468   2.115   5.291  0.1191  1.0760  0.4512
 1171WAT     H2 3725   3.339   2.082   5.220  1.1700  0.3102 -1.1500
 1172WAT      O 3726   2.289   3.181   0.739 -0.3213 -0.3286 -0.6319
 1172WAT     H1 3727   2.215   3.121   0.745 -0.6213 -0.0825 -1.7704
 1172WAT     H2 3728   2.270   3.236   0.663  1.3716 -0.7537 -1.4128
 1173WAT      O 3729   0.374   2.085   1.670 -0.2203  0.1729 -0.6641
 1173WAT     H1 3730   0.467   2.074   1.686 -0.0014  0.0294 -1.9611
 1173WAT     H2 3731   0.338   2.109   1.756  0.4519 -2.9340  0.6241
 1174WAT      O 3732   3.885   1.082   5.191  0.3342 -0.0327 -0.1733
 1174WAT     H1 3733   3.914   1.043   5.109 -0.3421 -1.7812  0.3740
 1174WAT     H2 3734   3.854   1.169   5.167  1.9370  0.2440 -1.4386
 1175WAT      O 3735   3.084   2.658   2.585  0.4283 -0.1836 -0.4421
 1175WAT     H1 3736   3.075   2.565   2.604  0.0508  0.1318  1.0513
 1175WAT     H2 3737   3.019   2.675   2.516 -0.3078 -0.8177  0.0778
 1176WAT      O 3738   1.717   2.872   4.687 -0.3997 -0.0747  0.2766
 1176WAT     H1 3739   1.781   2.813   4.645 -0.1255  0.0767  0.4824
 1176WAT     H2 3740   1.637   2.820   4.692 -0.7251  0.2190 -1.3169
 1177WAT      O 3741   4.379   2.575   0.103  0.1604 -0.2420 -0.5457
 1177WAT     H1 3742   4.341   2.492   0.074 -0.2982 -1.4258  2.9935
 1177WAT     H2 3743   4.474   2.560   0.101  0.0751 -0.8855  0.1637
 1178WAT      O 3744   3.444   0.645   3.780  0.2793  0.4304 -0.1279
 1178WAT     H1 3745   3.499   0.634   3.702  1.1996  3.4866 -0.0444
 1178WAT     H2 3746   3.438   0.740   3.791 -1.1500  0.1012  2.6346
 1179WAT      O 3747   4.751   1.601   0.960 -0.0262 -0.5159 -0.0821
 1179WAT     H1 3748   4.781   1.639   1.043  0.1213  0.1687 -0.4397
 1179WAT     H2 3749   4.656   1.612   0.962 -0.1895 -1.8239  0.6298
 1180WAT      O 3750   4.056   0.961   1.133  0.0862 -0.6974 -0.0100
 1180WAT     H1 3751   4.025   1.050   1.121  0.9166 -0.5460 -1.2194
 1180WAT     H2 3752   4.034   0.916   1.051  0.5236 -1.3285  0.2051
 1181WAT      O 3753   4.123   2.130   1.758  0.5672 -0.2464  0.3983
 1181WAT     H1 3754   4.035   2.114   1.792  0.6115 -0.4854  0.3999
 1181WAT     H2 3755   4.176   2.144   1.836  0.7882 -1.3841  0.4666
 1182WAT      O 3756   4.021   2.858   4.901 -0.4459  0.0311  0.1944
 1182WAT     H1 3757   3.968   2.832   4.976  0.1252 -2.4041 -0.1717
 1182WAT     H2 3758   4.027   2.954   4.907 -0.3709 -0.0863  3.2589
 1183WAT      O 3759   4.790   4.084   2.933  0.3118 -0.3032  0.2026
 1183WAT     H1 3760   4.848   4.158   2.949 -0.6118  0.1623  1.5787
 1183WAT     H2 3761   4.748   4.068   3.017 -1.9260 -0.2962 -0.8287
 1184WAT      O 3762   3.698   4.844   1.743 -0.2171 -0.0137  0.0415
 1184WAT     H1 3763   3.686   4.771   1.682 -0.6842 -0.1833  0.3281
 1184WAT     H2 3764   3.745   4.806   1.817  0.0393  0.1107 -0.0560
 1185WAT      O 3765   3.170   0.965   5.772 -0.2643 -0.3604  0.1411
 1185WAT     H1 3766   3.172   0.872   5.797  1.9795 -0.3515  0.2292
 1185WAT     H2 3767   3.262   0.988   5.760 -0.7910  1.8041 -0.1325
 1186WAT      O 3768   2.720   2.695   0.160 -0.2768 -0.0737 -0.3985
 1186WAT     H1 3769   2.717   2.788   0.185  0.3554  0.5765 -2.5397
 1186WAT     H2 3770   2.813   2.677   0.147 -0.5854  0.0341 -3.3879
 1187WAT      O 3771   2.169   1.186   1.139  0.0197  0.4221 -0.1374
 1187WAT     H1 3772   2.223   1.157   1.212  0.9538  1.1230 -0.5295
 1187WAT     H2 3773   2.218   1.259   1.100 -1.5978  1.6458  0.0010
 1188WAT      O 3774   2.790   1.866   4.847 -0.4498  0.3103  0.7571
 1188WAT     H1 3775   2.779   1.962   4.846 -2.6891  0.1064  0.8294
 1188WAT     H2 3776   2.745   1.837   4.768  0.1124 -0.7118  0.8061
 1189WAT      O 3777   3.645   2.427   5.435  0.0145  0.5543 -0.4115
 1189WAT     H1 3778   3.554   2.406   5.456  0.0681  0.0729 -0.6593
 1189WAT     H2 3779   3.640   2.469   5.349  0.2276 -1.3698 -1.4051
 1190WAT      O 3780   2.150   5.571   5.396 -0.0285 -0.4318  0.1384
 1190WAT     H1 3781   2.121   5.660   5.417 -0.6971 -0.8215  0.9388
 1190WAT     H2 3782   2.153   5.569   5.300  0.1329  0.4879  0.1132
 1191WAT      O 3783   0.105   1.214   2.374 -0.2201 -0.8787  0.0489
 1191WAT     H1 3784   0.165   1.223   2.448 -0.4636 -0.2271  0.1709
 1191WAT     H2 3785   0.025   1.177   2.412 -1.1759  1.5372  0.5686
 1192WAT      O 3786   2.374   2.448   5.047 -0.0653  0.0984 -0.0092
 1192WAT     H1 3787   2.401   2.370   4.998  0.5116  0.5246 -0.3827
 1192WAT     H2 3788   2.305   2.487   4.993  0.6079  0.5976 -0.5317
 1193WAT      O 3789   4.824   2.752   2.699  0.0513  0.3724  0.7594
 1193WAT     H1 3790   4.857   2.785   2.615 -2.8319  2.6094  0.3488
 1193WAT     H2 3791   4.822   2.657   2.688 -0.5447  0.5995 -1.8960
 1194WAT      O 3792   4.647   2.372   2.431 -0.5732  0.0900 -0.0863
 1194WAT     H1 3793   4.633   2.294   2.484 -1.8442  1.3603  1.5390
 1194WAT     H2 3794   4.727   2.412   2.465 -1.9739  1.4927  1.7190
 1195WAT      O 3795   2.652   1.575   1.093 -0.8206  0.0012 -0.4206
 1195WAT     H1 3796   2.577   1.624   1.057 -1.7318 -2.2591 -1.7861
 1195WAT     H2 3797   2.662   1.500   1.034  1.8294 -0.3882  0.3991
 1196WAT      O 3798   2.700   2.907   0.967  0.1173  0.4673 -0.0676
 1196WAT     H1 3799   2.650   2.829   0.991 -0.0322  0.3308 -0.8083
 1196WAT     H2 3800   2.634   2.970   0.939  0.1586  1.1943  1.3910
 1197WAT      O 3801   4.950   1.638   4.086  0.2295 -0.1612 -0.0394
 1197WAT     H1 3802   5.040   1.611   4.064  0.0472 -1.1801  0.4452
 1197WAT     H2 3803   4.903   1.631   4.003  0.5902  0.3901 -0.3007
 1198WAT      O 3804   4.578   3.025   1.554 -0.4432 -0.2608 -0.0592
 1198WAT     H1 3805   4.489   3.027   1.590 -0.9154 -1.2818 -1.1215
 1198WAT     H2 3806   4.584   2.940   1.510  0.9934 -0.1112 -0.1754
 1199WAT      O 3807   0.157   2.872   5.195  0.5164  0.0378 -0.2874
 1199WAT     H1 3808   0.160   2.854   5.101 -1.2373  0.5227 -0.4859
 1199WAT     H2 3809   0.063   2.880   5.214  0.8887  1.6623  1.1534
 1200WAT      O 3810   1.172   1.542   3.284  0.0242 -0.3169 -0.3672
 1200WAT     H1 3811   1.130   1.522   3.368 -0.8971 -0.1073 -0.7791
 1200WAT     H2 3812   1.120   1.611   3.246  2.4634  2.1589  0.4547
 1201WAT      O 3813   2.762   0.522   5.522 -0.4177  0.1538  0.0683
 1201WAT     H1 3814   2.681   0.471   5.526  0.6063 -1.5509 -0.0791
 1201WAT     H2 3815   2.779   0.532   5.428  0.3567 -0.9047  0.0724
 1202WAT      O 3816   3.764   1.104   1.361 -0.1329 -0.1490 -0.5767
 1202WAT     H1 3817   3.855   1.081   1.378 -0.8508 -2.4692  0.4403
 1202WAT     H2 3818   3.753   1.089   1.267  0.2426 -1.0093 -0.4936
 1203WAT      O 3819   3.864   2.394   3.867 -0.5722 -0.2034 -0.0938
 1203WAT     H1 3820   3.802   2.423   3.935  1.8540  2.2827  1.2387
 1203WAT     H2 3821   3.837   2.441   3.789 -1.1483 -0.1575  0.1268
 1204WAT      O 3822   1.166   1.295   2.246  0.2613  0.2624 -0.2243
 1204WAT     H1 3823   1.242   1.288   2.303  0.9724  0.8647 -1.0734
 1204WAT     H2 3824   1.092   1.306   2.306  0.7003 -1.2209  0.6460
 1205WAT      O 3825   4.947   1.892   1.731  0.0944  0.0029  0.2379
 1205WAT     H1 3826   4.894   1.942   1.669  0.0385 -1.7032 -1.1754
 1205WAT     H2 3827   5.032   1.883   1.688 -0.1612 -1.8165  0.0082
 1206WAT      O 3828   2.968   4.590   0.930  0.7722 -0.0918 -0.5236
 1206WAT     H1 3829   2.890   4.550   0.891  0.8958  0.0116 -0.8840
 1206WAT     H2 3830   2.941   4.616   1.017  0.8014 -1.3416 -0.1214
 1207WAT      O 3831   4.061   1.024   1.413  0.3383 -0.0036 -0.2221
 1207WAT     H1 3832   4.149   1.012   1.446  0.4980  0.9169 -0.2688
 1207WAT     H2 3833   4.066   0.998   1.321 -0.2418 -3.1141  0.5128
 1208WAT      O 3834   1.826   2.719   5.655 -0.0629  0.3248 -0.2213
 1208WAT     H1 3835   1.736   2.726   5.623  0.1542  0.7654 -0.7512
 1208WAT     H2 3836   1.855   2.632   5.630 -0.8304 -0.3885  1.2530
 1209WAT      O 3837   3.311   0.195   1.273  0.1228  0.0096 -0.4485
 1209WAT     H1 3838   3.342   0.272   1.321 -1.4947 -0.9985  2.4966
 1209WAT     H2 3839   3.267   0.231   1.196 -1.9206  2.2951  1.5825
 1210WAT      O 3840   4.425   3.460   4.148  0.7947  0.3654  0.2930
 1210WAT     H1 3841   4.469   3.396   4.205  0.6491 -0.1586 -0.1839
 1210WAT     H2 3842   4.462   3.445   4.062  0.6367  0.8150  0.1449
 1211WAT      O 3843   4.739   2.926   2.318  0.2680 -0.5084 -0.2666
 1211WAT     H1 3844   4.746   2.843   2.272  1.1576  0.4841 -2.0643
 1211WAT     H2 3845   4.825   2.938   2.359 -0.4499 -1.2868  1.5717
 1212WAT      O 3846   1.962   4.860   4.080  0.3947  0.0593 -0.2848
 1212WAT     H1 3847   2.035   4.904   4.124 -0.9636  1.2826  0.8693
 1212WAT     H2 3848   1.913   4.818   4.150 -2.2197  2.6264 -0.3532
 1213WAT      O 3849   2.537   0.722   1.051 -0.9373 -0.0726 -0.0171
 1213WAT     H1 3850   2.589   0.653   1.094 -2.2003 -1.5232 -0.7211
 1213WAT     H2 3851   2.589   0.801   1.063  0.8132 -1.2123  0.4283
 1214WAT      O 3852   2.848   4.621   1.179 -0.2959  0.7981 -0.3079
 1214WAT     H1 3853   2.755   4.634   1.161 -1.4653 -2.3899  2.4122
 1214WAT     H2 3854   2.867   4.679   1.253 -0.8629 -0.3360  0.7563
 1215WAT      O 3855   0.874   1.386   3.616  0.2947 -0.2784  0.2567
 1215WAT     H1 3856   0.779   1.394   3.618  0.3334  0.1667  0.4073
 1215WAT     H2 3857   0.891   1.300   3.654 -0.0894 -0.7428 -0.5912
 1216WAT      O 3858   4.248   1.370   1.834 -0.2223 -0.4466  0.1912
 1216WAT     H1 3859   4.237   1.365   1.929  0.5625 -2.1125  0.2230
 1216WAT     H2 3860   4.219   1.284   1.802  0.5277 -0.2930 -0.9676
 1217WAT      O 3861   3.417   4.861   5.468 -0.2464  0.0160  0.0124
 1217WAT     H1 3862   3.482   4.881   5.535 -0.0729 -0.3246 -0.0516
 1217WAT     H2 3863   3.363   4.940   5.462  0.5341  0.5348 -0.3556
 1218WAT      O 3864   3.267   4.049   4.515 -0.0764  0.9299 -0.0701
 1218WAT     H1 3865   3.205   3.991   4.469  0.6204  0.4899 -0.4789
 1218WAT     H2 3866   3.296   4.111   4.447  1.4655 -0.1340 -0.4435
 1219WAT      O 3867   4.151   4.967   4.655 -0.0299  0.0297 -0.7258
 1219WAT     H1 3868   4.233   4.941   4.697  0.5100  2.1582 -0.3338
 1219WAT     H2 3869   4.087   4.965   4.726 -0.1078 -0.6533 -0.8087
 1220WAT      O 3870   3.945   0.323   0.699  0.6328 -0.2011 -0.9557
 1220WAT     H1 3871   3.945   0.271   0.619  0.7848  0.9111 -1.7076
 1220WAT     H2 3872   3.862   0.371   0.697  0.3431 -0.6468 -0.1099
 1221WAT      O 3873   3.855   5.229   4.473 -0.2898  0.5723  0.1758
 1221WAT     H1 3874   3.923   5.216   4.408 -0.1924 -0.1330  0.4033
 1221WAT     H2 3875   3.813   5.311   4.449  0.0019  0.5157 -0.5375
 1222WAT      O 3876   2.311   5.376   2.213 -0.0362 -0.0275  0.3197
 1222WAT     H1 3877   2.406   5.385   2.216 -0.1716  1.5062  0.8234
 1222WAT     H2 3878   2.283   5.384   2.304 -0.6862  0.1583  0.1103
 1223WAT      O 3879   3.865   1.380   5.702  0.1526 -0.6000  0.4233
 1223WAT     H1 3880   3.846   1.473   5.688  0.2547 -0.7247 -0.6573
 1223WAT     H2 3881   3.903   1.375   5.789 -0.3410  0.3042  0.6952
 1224WAT      O 3882   4.472   4.568   5.398  0.3032  0.8921  0.2727
 1224WAT     H1 3883   4.491   4.543   5.489  0.1475 -1.6481 -0.3136
 1224WAT     H2 3884   4.378   4.553   5.388  0.7297 -1.4307 -0.9461
 1225WAT      O 3885   0.761   1.765   5.715 -0.7257  0.0649 -0.3153
 1225WAT     H1 3886   0.804   1.685   5.685 -0.7925  0.6586 -2.1262
 1225WAT     H2 3887   0.686   1.735   5.765 -0.1700 -1.0021 -0.1052
 1226WAT      O 3888   0.423   1.661   5.640  0.3569  0.4518 -0.6434
 1226WAT     H1 3889   0.496   1.644   5.581  0.5215 -1.2932 -0.0010
 1226WAT     H2 3890   0.387   1.574   5.659 -0.3609  1.0571  0.9574
 1227WAT      O 3891   3.113   3.846   0.721  0.7390  0.1174 -0.0629
 1227WAT     H1 3892   3.208   3.848   0.710  1.0317  1.2849  2.1918
 1227WAT     H2 3893   3.079   3.845   0.631  2.8581  1.2951 -0.9619
 1228WAT      O 3894   2.278   4.618   3.757  0.5597  0.1137 -0.0613
 1228WAT     H1 3895   2.204   4.665   3.796 -0.6986 -1.9286  0.1458
 1228WAT     H2 3896   2.296   4.547   3.819  0.2592 -1.6047 -1.8606
 1229WAT      O 3897   3.867   2.353   5.564  0.5575  0.5088 -0.1208
 1229WAT     H1 3898   3.789   2.396   5.528 -0.0967  0.3305  1.0512
 1229WAT     H2 3899   3.896   2.410   5.635  0.7657 -0.0412  0.2494
 1230WAT      O 3900   3.676   1.005   4.845  0.6562 -0.5108  0.1615
 1230WAT     H1 3901   3.586   1.019   4.874  0.0360 -0.6934 -1.5405
 1230WAT     H2 3902   3.719   1.089   4.858 -0.3510  0.2027 -0.8704
 1231WAT      O 3903   4.154   5.280   2.967  0.7376 -0.2057  0.0895
 1231WAT     H1 3904   4.121   5.361   3.004 -1.9169 -0.4956 -1.3584
 1231WAT     H2 3905   4.225   5.307   2.909  1.9100  0.6948  1.8771
 1232WAT      O 3906   4.916   1.803   2.363 -0.2257 -0.1377 -0.7646
 1232WAT     H1 3907   4.936   1.777   2.274 -0.2035  1.8642 -1.4038
 1232WAT     H2 3908   4.988   1.770   2.416 -0.1075 -1.1135 -1.5221
 1233WAT      O 3909   1.990   2.735   2.330  0.0549  0.2652  0.2855
 1233WAT     H1 3910   2.069   2.720   2.279  1.1019 -2.1613  2.3938
 1233WAT     H2 3911   1.920   2.693   2.280  0.6770 -0.3023 -0.1197
 1234WAT      O 3912   3.297   5.560   4.758 -0.0447  0.2316 -0.1363
 1234WAT     H1 3913   3.247   5.480   4.777  1.6815 -0.9069 -0.1323
 1234WAT     H2 3914   3.368   5.530   4.701  2.4552  1.1555  2.3205
 1235WAT      O 3915   0.859   3.622   4.465  0.2274  0.5610  0.2512
 1235WAT     H1 3916   0.853   3.716   4.482 -2.0119  0.5281 -0.1124
 1235WAT     H2 3917   0.895   3.586   4.546 -1.6155  1.4439  1.5328
 1236WAT      O 3918   3.123   3.643   4.166  0.3558  0.4296 -0.8546
 1236WAT     H1 3919   3.139   3.549   4.170  0.0387  0.4278  1.1422
 1236WAT     H2 3920   3.067   3.655   4.089  0.5502 -0.9811 -1.2324
 1237WAT      O 3921   2.383   0.779   5.718 -0.4172 -0.7882 -0.6599
 1237WAT     H1 3922   2.445   0.799   5.647 -0.6767  0.9620 -0.4389
 1237WAT     H2 3923   2.297   0.791   5.678 -0.5693 -0.5445 -0.2606
 1238WAT      O 3924   2.963   4.262   4.330  0.1867 -0.2578  0.4848
 1238WAT     H1 3925   3.000   4.332   4.384 -1.0458  0.4952  0.3926
 1238WAT     H2 3926   2.929   4.199   4.393 -0.6550  0.3029  0.6177
 1239WAT      O 3927   4.145   1.815   1.878 -0.8703 -0.2143 -0.3931
 1239WAT     H1 3928   4.168   1.865   1.799  0.0822  0.6457  0.3866
 1239WAT     H2 3929   4.094   1.877   1.931 -0.7056 -0.4616  0.0614
 1240WAT      O 3930   1.955   4.786   5.792 -0.0252  0.2129  0.2167
 1240WAT     H1 3931   1.877   4.824   5.831  1.2926  1.9201  1.3173
 1240WAT     H2 3932   1.966   4.832   5.708 -0.0384  0.1887  0.2020
 1241WAT      O 3933   2.727   4.607   3.186 -0.5565 -0.5517 -0.0957
 1241WAT     H1 3934   2.642   4.620   3.228 -1.0444 -2.6220 -0.3599
 1241WAT     H2 3935   2.706   4.586   3.095  0.3020  0.0376 -0.4425
 1242WAT      O 3936   1.504   3.422   1.134  0.1449 -0.1036 -0.1434
 1242WAT     H1 3937   1.527   3.515   1.137 -0.4746  0.1363 -1.7468
 1242WAT     H2 3938   1.547   3.384   1.210  0.5523  1.4660  0.4430
 1243WAT      O 3939   3.399   5.155   4.112  0.6208 -0.4578 -0.0752
 1243WAT     H1 3940   3.394   5.224   4.046 -1.0244 -1.6223 -1.2254
 1243WAT     H2 3941   3.368   5.197   4.193 -0.2518  0.1868 -0.7305
 1244WAT      O 3942   3.177   3.218   0.780 -0.1186  0.5874 -0.1621
 1244WAT     H1 3943   3.142   3.294   0.827 -0.3597 -0.2175  0.9867
 1244WAT     H2 3944   3.109   3.195   0.717  0.0300  1.4170 -0.6403
 1245WAT      O 3945   2.560   3.894   5.137 -0.0443  0.0518 -0.2074
 1245WAT     H1 3946   2.606   3.947   5.201  0.2318  0.1014 -0.4439
 1245WAT     H2 3947   2.587   3.930   5.052 -1.2477  0.6990 -0.3381
 1246WAT      O 3948   2.218   3.384   5.273  0.1283  0.1563  0.2835
 1246WAT     H1 3949   2.169   3.328   5.213 -0.6456  0.0539  0.9856
 1246WAT     H2 3950   2.237   3.463   5.223 -0.3786  0.0107 -0.1428
 1247WAT      O 3951   3.073   0.308   5.325 -0.0385 -0.6925 -0.8094
 1247WAT     H1 3952   2.982   0.282   5.337 -0.3775  0.6036 -0.4775
 1247WAT     H2 3953   3.081   0.323   5.231 -1.1481  2.4759 -0.5202
 1248WAT      O 3954   3.713   2.360   1.200 -0.1528  0.6041 -0.1048
 1248WAT     H1 3955   3.769   2.343   1.124 -1.7043  1.2911 -1.4714
 1248WAT     H2 3956   3.764   2.419   1.255  1.3121 -0.5105 -0.1869
 1249WAT      O 3957   2.002   4.949   1.887  0.1761 -0.5463  0.2043
 1249WAT     H1 3958   2.060   4.941   1.963  0.7031  0.6301 -0.0491
 1249WAT     H2 3959   2.011   5.040   1.859  1.0452 -1.2459 -2.0727
 1250WAT      O 3960   3.466   5.045   3.100 -0.2861  0.1328  0.0308
 1250WAT     H1 3961   3.375   5.031   3.074 -0.4867 -3.9892  2.1791
 1250WAT     H2 3962   3.517   5.015   3.026 -0.6190  1.3408 -0.7196
 1251WAT      O 3963   2.788   2.796   3.973  0.2440  0.0037  0.3470
 1251WAT     H1 3964   2.838   2.876   3.989 -0.1089  0.3262 -0.1335
 1251WAT     H2 3965   2.751   2.773   4.058  0.4489  0.2874  0.5121
 1252WAT      O 3966   1.172   3.322   0.240  0.2823  0.1484 -0.3829
 1252WAT     H1 3967   1.091   3.347   0.285  1.0526  0.5122  0.8656
 1252WAT     H2 3968   1.198   3.239   0.282  1.6379  1.0879  0.7599
 1253WAT      O 3969   3.036   4.184   5.509 -0.5579  0.7164  0.3922
 1253WAT     H1 3970   3.036   4.213   5.418 -0.8935  0.9668  0.4713
 1253WAT     H2 3971   3.019   4.263   5.560 -2.0746  0.2986  0.5742
 1254WAT      O 3972   3.682   1.268   4.223 -0.2395 -0.2783  0.0988
 1254WAT     H1 3973   3.615   1.333   4.243 -0.8067 -0.7443 -0.2296
 1254WAT     H2 3974   3.764   1.317   4.220 -0.5492  0.2835  0.6155
 1255WAT      O 3975   2.035   0.270   0.044 -0.8177  0.2530  0.1106
 1255WAT     H1 3976   2.017   0.358   0.010  0.1306  1.2234  1.9874
 1255WAT     H2 3977   2.120   0.278   0.087 -0.2292 -1.8668 -0.5331
 1256WAT      O 3978   2.637   4.530   3.914 -0.2567 -0.5711 -0.2967
 1256WAT     H1 3979   2.596   4.478   3.984 -0.9974 -1.3505 -1.2859
 1256WAT     H2 3980   2.643   4.618   3.951  1.6112 -1.4134  1.6673
 1257WAT      O 3981   0.672   2.913   5.026 -0.0287 -0.0372  0.3399
 1257WAT     H1 3982   0.737   2.893   4.960  0.9948 -0.6745  1.4936
 1257WAT     H2 3983   0.660   3.008   5.020  0.0251 -0.0882 -0.7466
 1258WAT      O 3984   0.919   3.162   0.033  0.5768 -0.6079 -0.3314
 1258WAT     H1 3985   0.891   3.177   0.123  2.8832 -0.9383  0.5059
 1258WAT     H2 3986   1.002   3.116   0.041  1.4320  0.3975 -2.6162
 1259WAT      O 3987   0.422   2.062   5.494 -0.2085  0.4216 -0.2069
 1259WAT     H1 3988   0.363   2.007   5.546 -0.2405  0.1556 -0.5250
 1259WAT     H2 3989   0.396   2.152   5.516 -1.8067  0.3265 -1.5374
 1260WAT      O 3990   2.656   5.395   5.070 -0.2184  0.1361  0.4841
 1260WAT     H1 3991   2.572   5.409   5.026 -0.8299 -0.7861  1.3319
 1260WAT     H2 3992   2.650   5.306   5.105  1.6330 -0.4631 -0.5809
 1261WAT      O 3993   1.796   3.588   4.923  0.0821 -0.1601 -0.2205
 1261WAT     H1 3994   1.888   3.577   4.947 -0.4175 -2.9459  0.8382
 1261WAT     H2 3995   1.797   3.644   4.846  2.7065 -0.4538 -0.4744
 1262WAT      O 3996   4.765   3.642   3.941  0.3163  0.1314  0.7859
 1262WAT     H1 3997   4.811   3.694   3.876  0.2167  0.1684  0.7448
 1262WAT     H2 3998   4.764   3.697   4.020  4.3365 -1.5796  2.2586
 1263WAT      O 3999   3.001   4.763   5.265 -0.7420  0.1608 -0.0449
 1263WAT     H1 4000   3.002   4.838   5.206 -1.6961  0.1683 -0.0735
 1263WAT     H2 4001   3.072   4.707   5.235  0.4083  1.3458  0.3761
 1264WAT      O 4002   4.572   4.290   2.239 -0.3594 -0.3962 -0.0132
 1264WAT     H1 4003   4.489   4.338   2.248 -0.7307 -0.9820 -0.2599
 1264WAT     H2 4004   4.608   4.320   2.156 -0.7178 -0.7348 -0.2920
 1265WAT      O 4005   4.389   3.822   4.650  0.3978 -0.1199 -0.6492
 1265WAT     H1 4006   4.460   3.817   4.713 -1.7619 -1.0259  1.8899
 1265WAT     H2 4007   4.397   3.742   4.598  0.9087 -0.4900 -0.0088
 1266WAT      O 4008   1.945   4.133   0.557  0.2705 -0.3319  0.6621
 1266WAT     H1 4009   1.946   4.098   0.647  1.6936 -1.3899  0.2815
 1266WAT     H2 4010   1.956   4.227   0.568 -2.3543 -0.0668  1.6746
 1267WAT      O 4011   1.849   0.121   0.153  0.3610  0.4496  0.2345
 1267WAT     H1 4012   1.904   0.197   0.133 -0.9564  1.2502 -0.5183
 1267WAT     H2 4013   1.879   0.052   0.095 -0.5821  1.4420 -1.5051
 1268WAT      O 4014   3.435   4.130   0.415  0.4902 -0.1398  0.3436
 1268WAT     H1 4015   3.435   4.038   0.389  2.5182 -0.1943  0.3486
 1268WAT     H2 4016   3.352   4.142   0.461  0.1346 -1.9298  0.2430
 1269WAT      O 4017   3.690   4.284   1.214 -0.0580 -0.3125  0.5690
 1269WAT     H1 4018   3.701   4.263   1.121 -1.7977 -1.8802  0.6416
 1269WAT     H2 4019   3.748   4.223   1.259  1.1030  0.7283  0.5457
 1270WAT      O 4020   2.534   2.278   0.303  0.1757 -0.2384  0.5811
 1270WAT     H1 4021   2.441   2.299   0.299  0.6651  2.4182  1.4216
 1270WAT     H2 4022   2.561   2.273   0.211 -0.8976 -1.9152  0.3044
 1271WAT      O 4023   2.108   5.423   1.172 -0.1905  0.1912  0.2170
 1271WAT     H1 4024   2.101   5.344   1.226  0.0683 -0.6536 -0.9402
 1271WAT     H2 4025   2.034   5.418   1.113 -0.1667  0.8251  0.1271
 1272WAT      O 4026   3.622   4.572   5.517  0.0097  0.0720 -0.1587
 1272WAT     H1 4027   3.573   4.492   5.497 -0.3598 -0.1625  1.5001
 1272WAT     H2 4028   3.555   4.639   5.529  0.2403  0.3180 -0.2368
 1273WAT      O 4029   4.132   2.432   3.877  0.2023  0.1709  0.7526
 1273WAT     H1 4030   4.156   2.394   3.793  0.7017 -0.2896  1.0939
 1273WAT     H2 4031   4.040   2.410   3.888  0.2652 -0.2010  0.5561
 1274WAT      O 4032   0.496   3.424   5.721 -0.0593  0.2198 -0.0947
 1274WAT     H1 4033   0.549   3.473   5.784  1.9050  0.4014 -1.7852
 1274WAT     H2 4034   0.448   3.360   5.774  1.2195  0.6167  1.6176
 1275WAT      O 4035   3.182   0.039   5.409 -0.0786  0.4387  0.0452
 1275WAT     H1 4036   3.238  -0.003   5.344 -0.0718  0.3581  0.1038
 1275WAT     H2 4037   3.153   0.120   5.366  0.1996  0.5529  0.0682
 1276WAT      O 4038   3.287   1.265   4.978  0.4436  0.4947 -0.2186
 1276WAT     H1 4039   3.240   1.340   4.942  0.7285  1.1875  0.8122
 1276WAT     H2 4040   3.218   1.208   5.012  0.2411  0.4487 -0.7019
 1277WAT      O 4041   3.485   3.961   3.892 -0.3414  0.0463  0.2640
 1277WAT     H1 4042   3.446   3.982   3.977 -0.7985  3.9485 -0.6895
 1277WAT     H2 4043   3.412   3.970   3.830  0.7139  1.1997 -0.8826
 1278WAT      O 4044   3.146   5.086   5.407  0.1450  0.4743  0.2740
 1278WAT     H1 4045   3.207   5.102   5.478  0.0430 -0.4822  0.5861
 1278WAT     H2 4046   3.184   5.133   5.332  1.3039 -0.1622  0.4384
 1279WAT      O 4047   4.173   1.020   4.061  0.4803 -0.6088  0.3162
 1279WAT     H1 4048   4.145   1.049   4.148 -0.9101 -1.9412  0.3672
 1279WAT     H2 4049   4.267   1.034   4.060  0.0528  3.3245  0.4964
 1280WAT      O 4050   0.527   2.528   4.811  0.0794 -0.2380 -0.1705
 1280WAT     H1 4051   0.464   2.568   4.872  0.5023 -0.1932  0.2347
 1280WAT     H2 4052   0.527   2.435   4.834 -1.5734 -0.6782 -1.6911
 1281WAT      O 4053   3.439   1.838   4.036  0.3974  0.0575  0.0016
 1281WAT     H1 4054   3.479   1.921   4.061 -0.9135  0.6913  0.0796
 1281WAT     H2 4055   3.504   1.795   3.981  1.0740  1.1647 -0.0847
 1282WAT      O 4056   1.168   4.136   0.977 -0.4656  0.2264 -0.7662
 1282WAT     H1 4057   1.216   4.184   1.045 -0.5222 -0.5195 -0.1809
 1282WAT     H2 4058   1.236   4.086   0.931 -0.4693  0.4822 -1.0524
 1283WAT      O 4059   2.226   5.193   5.807  0.0760  0.4330  0.3124
 1283WAT     H1 4060   2.172   5.122   5.772  2.0095 -1.6779  1.3394
 1283WAT     H2 4061   2.233   5.255   5.734 -0.7659 -0.9707 -1.0461
 1284WAT      O 4062   2.484   3.012   4.061 -0.1716  0.4116  0.6904
 1284WAT     H1 4063   2.549   3.023   4.129 -0.9119  0.3809  1.4185
 1284WAT     H2 4064   2.424   3.086   4.072  1.0167  1.8425 -1.4945
 1285WAT      O 4065   2.521   2.516   0.091 -0.5665  0.1725 -0.2658
 1285WAT     H1 4066   2.567   2.592   0.126 -1.0193  1.0876 -1.5728
 1285WAT     H2 4067   2.571   2.491   0.014 -2.4398  1.5178 -2.0364
 1286WAT      O 4068   4.222   4.123   3.671 -0.5973  0.0891  0.1082
 1286WAT     H1 4069   4.134   4.139   3.704 -0.9151  0.3886 -0.8421
 1286WAT     H2 4070   4.221   4.160   3.582  1.0628  1.8991  0.7797
 1287WAT      O 4071   2.116   2.152   4.643 -0.4498  0.6368 -0.3812
 1287WAT     H1 4072   2.030   2.176   4.608 -0.3577  2.0822  0.3346
 1287WAT     H2 4073   2.108   2.165   4.738  0.6200  0.9930 -0.3242
 1288WAT      O 4074   1.561   3.226   3.564 -0.2566  0.1111 -0.1942
 1288WAT     H1 4075   1.649   3.188   3.562 -0.5326 -0.6446  0.9569
 1288WAT     H2 4076   1.567   3.303   3.508  0.9225 -0.3822 -0.7868
 1289WAT      O 4077   0.497   2.734   4.121  0.1432  0.3542 -0.0969
 1289WAT     H1 4078   0.520   2.720   4.029  2.3500  0.9435  0.2987
 1289WAT     H2 4079   0.488   2.646   4.157  2.1725  0.0296 -0.2632
 1290WAT      O 4080   3.157   4.808   0.745  0.3437  0.0862  0.3139
 1290WAT     H1 4081   3.204   4.728   0.771  0.2320  0.1084  0.5847
 1290WAT     H2 4082   3.145   4.857   0.826  1.9251  1.2018 -0.0998
 1291WAT      O 4083   3.738   4.457   5.291 -0.0237  0.4811 -0.5944
 1291WAT     H1 4084   3.826   4.482   5.263  0.6432  1.7821  2.2997
 1291WAT     H2 4085   3.723   4.507   5.371 -2.6915 -1.0870  0.0127
 1292WAT      O 4086   2.686   4.697   4.884  0.1914 -0.8956  0.3923
 1292WAT     H1 4087   2.769   4.685   4.837 -0.4005 -1.3367 -0.5661
 1292WAT     H2 4088   2.712   4.715   4.974  1.3252 -1.3316  0.1672
 1293WAT      O 4089   1.388   0.594   5.827  0.4261 -0.3584 -0.0880
 1293WAT     H1 4090   1.352   0.672   5.868 -2.3892 -0.1684 -2.5916
 1293WAT     H2 4091   1.326   0.524   5.851 -1.7264 -0.1265 -4.0907
 1294WAT      O 4092   1.260   2.736   2.597  0.6730  0.0923  0.1943
 1294WAT     H1 4093   1.303   2.795   2.536  0.1084 -0.7784 -1.0998
 1294WAT     H2 4094   1.241   2.658   2.545 -0.6661 -0.3180  1.2300
 1295WAT      O 4095   2.632   3.536   3.196  0.1100  0.2779 -0.3999
 1295WAT     H1 4096   2.689   3.495   3.130 -0.3704 -0.5046 -0.3450
 1295WAT     H2 4097   2.642   3.481   3.274  0.4566  1.0356  0.1012
 1296WAT      O 4098   2.752   0.106   4.536  0.4422  0.2014  0.1655
 1296WAT     H1 4099   2.769   0.013   4.518  0.5112  0.4468 -1.1300
 1296WAT     H2 4100   2.831   0.151   4.505  0.2335  0.7390  0.4043
 1297WAT      O 4101   3.298   5.380   2.688  0.3321 -0.1808 -0.3311
 1297WAT     H1 4102   3.264   5.468   2.672  0.6991  0.1427  0.6188
 1297WAT     H2 4103   3.226   5.335   2.732  0.7029  0.1594  0.6590
 1298WAT      O 4104   1.876   1.068   1.152  0.1308  0.0231 -0.4665
 1298WAT     H1 4105   1.960   1.103   1.122  0.1600 -0.7494 -1.3424
 1298WAT     H2 4106   1.810   1.121   1.106  0.1714 -0.5012 -1.1618
 1299WAT      O 4107   1.650   5.151   0.518  0.7362  0.0485  0.5378
 1299WAT     H1 4108   1.600   5.125   0.595  1.0565 -1.4098  0.2733
 1299WAT     H2 4109   1.604   5.111   0.444  0.7202  1.0142 -0.0043
 1300WAT      O 4110   0.627   3.615   3.378 -0.0541  0.3907 -0.3439
 1300WAT     H1 4111   0.680   3.537   3.365  0.6032  1.1102 -2.3241
 1300WAT     H2 4112   0.580   3.627   3.296 -0.4198  1.8766  0.0415
 1301WAT      O 4113   2.402   1.490   4.144  0.4399 -0.4848 -0.0051
 1301WAT     H1 4114   2.444   1.474   4.228  1.1065  1.3162  0.0491
 1301WAT     H2 4115   2.322   1.438   4.146  0.4699 -0.4978  1.7210
 1302WAT      O 4116   3.559   1.694   5.180 -0.4520 -0.0906 -0.4435
 1302WAT     H1 4117   3.648   1.659   5.179  0.7739  2.7204 -1.2581
 1302WAT     H2 4118   3.507   1.629   5.134  1.4021 -1.3448 -0.8971
 1303WAT      O 4119   0.441   2.697   1.081 -0.4390 -0.0871 -0.1754
 1303WAT     H1 4120   0.368   2.669   1.136  0.4038  0.1712  1.1064
 1303WAT     H2 4121   0.446   2.791   1.092  0.7803 -0.2272  0.6529
 1304WAT      O 4122   3.908   5.237   2.783 -0.8212 -0.7336  0.2811
 1304WAT     H1 4123   3.988   5.257   2.831 -0.7439  2.1607 -0.8353
 1304WAT     H2 4124   3.860   5.177   2.840  1.4392 -1.3468  1.6526
 1305WAT      O 4125   1.664   3.330   5.692 -0.4152  0.1363  0.3101
 1305WAT     H1 4126   1.715   3.292   5.621 -1.8188 -1.1601 -0.0474
 1305WAT     H2 4127   1.709   3.302   5.772  0.6096  0.7919 -0.0125
 1306WAT      O 4128   1.532   3.188   4.092 -0.8356 -0.3912 -0.3602
 1306WAT     H1 4129   1.521   3.177   3.998 -0.7648 -0.8814 -0.3145
 1306WAT     H2 4130   1.449   3.158   4.129 -0.6243 -0.8121 -0.2277
 1307WAT      O 4131   2.067   4.433   4.274  0.4435 -0.2157  0.4577
 1307WAT     H1 4132   2.050   4.339   4.275 -0.4495 -0.2850 -3.8504
 1307WAT     H2 4133   2.162   4.439   4.265  0.3629 -0.8326 -1.0931
 1308WAT      O 4134   2.739   4.495   0.856 -0.0069 -0.2023  0.1484
 1308WAT     H1 4135   2.704   4.444   0.783  1.0726  0.8834 -1.1981
 1308WAT     H2 4136   2.676   4.565   0.870 -0.1435 -0.3262  0.1495
 1309WAT      O 4137   2.456   3.246   3.533  0.2116 -0.4039  0.5241
 1309WAT     H1 4138   2.420   3.158   3.533  2.8527 -1.5979  1.6964
 1309WAT     H2 4139   2.447   3.276   3.624  1.6038 -0.5180  0.7155
 1310WAT      O 4140   3.209   4.448   2.379  0.0030  0.1518 -0.6805
 1310WAT     H1 4141   3.278   4.408   2.327  2.5689  2.1005  0.9427
 1310WAT     H2 4142   3.203   4.538   2.345 -2.3974 -0.1541 -1.2904
 1311WAT      O 4143   4.058   0.194   2.001 -0.0781 -0.2456  0.1491
 1311WAT     H1 4144   4.044   0.123   1.938  1.9461 -1.2534  0.7524
 1311WAT     H2 4145   4.061   0.273   1.947  0.0007 -0.8924 -0.8251
 1312WAT      O 4146   3.379   2.003   4.899  0.5235 -0.1141 -0.4001
 1312WAT     H1 4147   3.305   1.945   4.917  1.1232 -1.1861 -1.2490
 1312WAT     H2 4148   3.436   1.994   4.976  0.2351 -0.0390 -0.1777
 1313WAT      O 4149   2.012   1.360   5.304  0.1988  0.0096  0.0459
 1313WAT     H1 4150   1.959   1.283   5.281  0.4650 -0.0298 -0.4339
 1313WAT     H2 4151   2.096   1.345   5.262  0.0775  0.8236 -0.5104
 1314WAT      O 4152   2.771   4.045   0.651 -0.4467 -0.1019 -0.0249
 1314WAT     H1 4153   2.716   3.974   0.686  0.6366 -0.4371  1.0574
 1314WAT     H2 4154   2.811   4.008   0.572 -0.9853 -0.1886 -0.2650
 1315WAT      O 4155   4.794   2.380   0.075 -0.1905 -0.2357  0.5083
 1315WAT     H1 4156   4.711   2.332   0.067 -0.3263  0.0833 -0.0886
 1315WAT     H2 4157   4.839   2.363  -0.008 -1.3726  2.7337 -0.8792
 1316WAT      O 4158   2.603   3.716   2.773  0.1808  0.5278  0.4507
 1316WAT     H1 4159   2.534   3.650   2.780  0.0319  0.7388  1.0278
 1316WAT     H2 4160   2.616   3.746   2.862  0.8517  0.6694  0.3104
 1317WAT      O 4161   4.179   4.219   1.238  0.2703  0.4087 -0.0970
 1317WAT     H1 4162   4.114   4.151   1.250 -0.5089  0.2697 -3.9359
 1317WAT     H2 4163   4.130   4.301   1.249 -0.1858  0.3013 -1.2106
 1318WAT      O 4164   4.545   3.872   3.556  0.0078 -0.0691 -1.4088
 1318WAT     H1 4165   4.598   3.933   3.607 -1.6986  1.7035 -1.6395
 1318WAT     H2 4166   4.462   3.867   3.603 -0.6364 -0.5227 -2.5482
 1319WAT      O 4167   3.844   2.546   4.963 -0.4374  0.0338  0.4392
 1319WAT     H1 4168   3.868   2.457   4.989 -0.4454 -0.2358 -0.4303
 1319WAT     H2 4169   3.813   2.587   5.043 -1.2805 -1.0358  0.6869
 1320WAT      O 4170   0.912   4.017   4.865  0.1542  0.2851 -0.0631
 1320WAT     H1 4171   0.864   4.036   4.784  2.2329  2.8038 -0.8456
 1320WAT     H2 4172   0.877   4.079   4.929  1.3146  1.1527 -0.2413
 1321WAT      O 4173   2.239   3.242   1.394 -0.1638 -0.2575  0.8188
 1321WAT     H1 4174   2.286   3.257   1.475  0.8963  0.1209  0.1430
 1321WAT     H2 4175   2.307   3.224   1.329 -0.8819  1.1428 -0.3656
 1322WAT      O 4176   3.131   3.344   4.097 -0.2696 -1.0908  0.3995
 1322WAT     H1 4177   3.051   3.334   4.046 -0.6778  0.7592  0.6301
 1322WAT     H2 4178   3.201   3.316   4.038 -0.5524  2.4397 -1.8928
 1323WAT      O 4179   4.001   4.986   4.880  0.3236 -0.0673 -0.0048
 1323WAT     H1 4180   3.948   5.051   4.926 -2.1269 -0.4773 -2.0004
 1323WAT     H2 4181   4.025   4.922   4.947  0.2721  1.3410  1.4130
 1324WAT      O 4182   2.355   1.779   1.723 -0.4598  0.5543 -0.5053
 1324WAT     H1 4183   2.372   1.769   1.817  0.4758 -3.5306 -0.9294
 1324WAT     H2 4184   2.441   1.797   1.685 -0.6124  0.8333 -0.7196
 1325WAT      O 4185   4.110   3.895   4.759  0.6846 -0.0573 -0.4094
 1325WAT     H1 4186   4.043   3.908   4.692  1.4443 -0.0826 -1.1911
 1325WAT     H2 4187   4.157   3.816   4.731  1.1791  0.0767  0.0193
 1326WAT      O 4188   1.759   3.478   3.831 -0.0510 -0.4839 -0.4525
 1326WAT     H1 4189   1.844   3.504   3.795  0.8843 -0.3132  1.7252
 1326WAT     H2 4190   1.773   3.389   3.863 -0.7893 -0.5655 -0.3337
 1327WAT      O 4191   3.572   4.933   3.718  0.2531  0.0529 -0.7316
 1327WAT     H1 4192   3.629   4.857   3.724  0.3958  0.1236 -1.1337
 1327WAT     H2 4193   3.485   4.901   3.742  0.5589  0.0693  0.4656
 1328WAT      O 4194   3.875   0.876   4.280 -0.2038  0.1581 -0.3544
 1328WAT     H1 4195   3.867   0.798   4.335  1.1637  0.4105  0.2517
 1328WAT     H2 4196   3.789   0.887   4.241 -0.6442 -1.1877  0.1849
 1329WAT      O 4197   2.881   0.832   2.887 -0.1042  0.3105  0.0914
 1329WAT     H1 4198   2.908   0.824   2.796 -2.0820 -1.2537 -0.4407
 1329WAT     H2 4199   2.922   0.756   2.930 -0.4097  0.1749  0.1476
 1330WAT      O 4200   1.379   1.906   0.663 -0.0735  0.4267 -0.3452
 1330WAT     H1 4201   1.377   1.823   0.711 -0.5604  0.8963  0.4846
 1330WAT     H2 4202   1.298   1.950   0.689 -1.6391 -0.2992 -3.4897
 1331WAT      O 4203   1.392   3.673   3.501 -0.0040  0.0615  0.5159
 1331WAT     H1 4204   1.462   3.637   3.555  0.2925 -0.8046 -0.3985
 1331WAT     H2 4205   1.349   3.596   3.463 -0.7102  0.6187  0.1650
 1332WAT      O 4206   2.788   5.341   4.129 -0.1577 -0.3860  0.0897
 1332WAT     H1 4207   2.716   5.362   4.070 -0.4708  1.0843  0.9514
 1332WAT     H2 4208   2.746   5.327   4.214  0.5608  0.6333  0.6351
 1333WAT      O 4209   3.126   4.608   3.439  0.3468  0.5461 -0.3072
 1333WAT     H1 4210   3.035   4.633   3.424 -0.0296  1.4583  2.7192
 1333WAT     H2 4211   3.129   4.514   3.417 -2.3522 -0.4521  2.7791
 1334WAT      O 4212   3.791   5.097   3.282  0.0175 -0.1641  0.0951
 1334WAT     H1 4213   3.818   5.013   3.321 -0.6844 -0.2388  0.4310
 1334WAT     H2 4214   3.696   5.090   3.275  0.1127 -0.0956 -1.5172
 1335WAT      O 4215   2.797   4.747   0.102 -0.0831  0.3658 -0.1485
 1335WAT     H1 4216   2.864   4.779   0.162  0.5849 -0.0896 -0.6260
 1335WAT     H2 4217   2.715   4.759   0.149  0.3826  0.4186  0.6766
 1336WAT      O 4218   3.948   5.211   4.083 -0.3257  0.5255  0.5184
 1336WAT     H1 4219   3.854   5.201   4.096 -0.5193  1.6911  0.1270
 1336WAT     H2 4220   3.960   5.305   4.070  1.0329  0.5362  1.6671
 1337WAT      O 4221   2.353   3.986   5.516 -0.3167  0.3498  0.5290
 1337WAT     H1 4222   2.311   3.916   5.567  0.2447  0.6418  1.4153
 1337WAT     H2 4223   2.441   3.952   5.498 -0.5718  0.1703 -0.4286
 1338WAT      O 4224   1.434   1.833   3.191 -0.2746  0.1684  0.2202
 1338WAT     H1 4225   1.517   1.800   3.225  0.3314 -0.9998 -2.1540
 1338WAT     H2 4226   1.459   1.897   3.124 -1.2526 -0.3962 -0.7235
 1339WAT      O 4227   0.037   3.607   4.190 -0.3317  0.8377 -0.4468
 1339WAT     H1 4228  -0.039   3.591   4.245 -0.5666 -0.1603 -1.0276
 1339WAT     H2 4229   0.005   3.590   4.101  1.5054 -3.7818 -0.4755
 1340WAT      O 4230   4.656   4.202   4.689  0.6195 -0.1067  0.2668
 1340WAT     H1 4231   4.570   4.188   4.728 -0.1064  0.6611 -0.9711
 1340WAT     H2 4232   4.699   4.264   4.747 -0.4522  1.0488 -0.1333
 1341WAT      O 4233   1.787   4.269   5.644  0.1923 -0.1940 -0.6035
 1341WAT     H1 4234   1.757   4.297   5.558 -1.4911 -0.6223 -0.1958
 1341WAT     H2 4235   1.863   4.214   5.626 -0.2458 -0.4336 -1.8340
 1342WAT      O 4236   2.271   0.934   3.719  0.0013  0.5759 -0.5145
 1342WAT     H1 4237   2.271   0.913   3.626 -0.7975 -0.6227 -0.2616
 1342WAT     H2 4238   2.228   1.020   3.724  2.5118  1.9883 -1.4744
 1343WAT      O 4239   2.750   5.003   3.100  0.1859  0.3142  0.4341
 1343WAT     H1 4240   2.835   5.013   3.144  1.1089  0.3644 -1.2923
 1343WAT     H2 4241   2.715   5.092   3.098 -0.7174  0.0791  2.5884
 1344WAT      O 4242   4.159   3.903   3.347  0.5180  0.0028  0.3398
 1344WAT     H1 4243   4.248   3.936   3.355  0.6243 -0.0907 -0.4195
 1344WAT     H2 4244   4.104   3.975   3.377  0.9021 -0.8425  3.4619
 1345WAT      O 4245   2.313   0.019   4.676 -0.7829  0.6885  0.1012
 1345WAT     H1 4246   2.383  -0.037   4.643 -0.0332  1.9391 -0.5229
 1345WAT     H2 4247   2.355   0.104   4.691 -2.3496  1.8075 -1.3496
 1346WAT      O 4248   3.191   1.139   4.260  0.0829 -0.0125 -0.6793
 1346WAT     H1 4249   3.264   1.167   4.315 -0.8640  2.1482 -0.4020
 1346WAT     H2 4250   3.113   1.147   4.316 -0.7103  0.7048 -1.8363
 1347WAT      O 4251   1.996   4.108   0.856 -0.1604  0.3862 -0.2426
 1347WAT     H1 4252   2.057   4.069   0.919 -0.5676 -0.2381 -0.2174
 1347WAT     H2 4253   1.936   4.036   0.833 -1.1231  1.0786  0.0218
 1348WAT      O 4254   4.658   3.208   4.525  0.5279 -0.2175 -0.0886
 1348WAT     H1 4255   4.613   3.241   4.603  1.6987  1.3657 -0.0289
 1348WAT     H2 4256   4.659   3.113   4.536 -2.7535 -0.3766 -0.1073
 1349WAT      O 4257   3.571   0.469   1.966 -0.2494 -0.0674  0.2741
 1349WAT     H1 4258   3.593   0.556   2.001  2.5587 -1.5192  2.6231
 1349WAT     H2 4259   3.623   0.461   1.886  0.8020 -0.1030  0.9324
 1350WAT      O 4260   4.045   5.386   5.477 -0.0528  0.3308  0.7233
 1350WAT     H1 4261   4.117   5.334   5.441 -0.2368 -0.4213  1.4047
 1350WAT     H2 4262   4.080   5.420   5.560  0.5301  2.4215 -0.3313
 1351WAT      O 4263   3.919   0.859   4.822 -0.0998 -0.2823  0.6375
 1351WAT     H1 4264   3.830   0.892   4.836  0.1455 -0.0554  1.7455
 1351WAT     H2 4265   3.913   0.766   4.843 -0.0383 -0.2191  0.9543
 1352WAT      O 4266   2.849   3.184   5.274  0.0517  0.8359 -0.4036
 1352WAT     H1 4267   2.926   3.150   5.227  0.4218  1.9482 -0.6471
 1352WAT     H2 4268   2.812   3.108   5.317 -0.2057 -0.2352 -2.3691
 1353WAT      O 4269   3.410   0.928   3.786 -0.0496  0.3192 -0.7533
 1353WAT     H1 4270   3.339   0.965   3.735  0.6185  0.0995 -1.8719
 1353WAT     H2 4271   3.432   0.996   3.850 -1.5130  0.2320 -0.1160
 1354WAT      O 4272   4.654   2.381   1.481  0.9567  0.2616 -0.0356
 1354WAT     H1 4273   4.589   2.430   1.531 -0.0376 -0.3130 -0.7302
 1354WAT     H2 4274   4.731   2.377   1.538 -0.1945 -0.5312  1.5323
 1355WAT      O 4275   4.818   1.668   4.318  0.2886  0.3143  0.7622
 1355WAT     H1 4276   4.889   1.643   4.377  0.5287 -2.1191 -0.4236
 1355WAT     H2 4277   4.860   1.679   4.233 -0.6378 -0.7917  0.1222
 1356WAT      O 4278   2.110   2.643   1.220  0.2236 -0.4778 -1.1430
 1356WAT     H1 4279   2.094   2.613   1.130 -0.3345  0.1007 -1.2496
 1356WAT     H2 4280   2.202   2.624   1.235  0.5777  0.2791 -2.1892
 1357WAT      O 4281   2.268   0.962   4.944 -0.4341 -0.4118  0.0097
 1357WAT     H1 4282   2.195   1.015   4.913  0.3919  0.0479 -1.2198
 1357WAT     H2 4283   2.346   1.017   4.932  0.2112 -1.1555  0.6018
 1358WAT      O 4284   3.287   0.664   5.582 -0.4651  0.3621 -0.1824
 1358WAT     H1 4285   3.276   0.618   5.499  0.6635  2.2604 -1.4961
 1358WAT     H2 4286   3.359   0.619   5.626  0.1575  0.4226 -1.1131
 1359WAT      O 4287   3.513   1.391   4.511 -0.6651  0.7484 -0.2882
 1359WAT     H1 4288   3.535   1.398   4.604 -0.7070  0.1284 -0.2318
 1359WAT     H2 4289   3.484   1.479   4.488  0.3955  1.1945  0.0061
 1360WAT      O 4290   4.124   0.489   5.470 -0.0058 -0.1286 -0.1381
 1360WAT     H1 4291   4.165   0.522   5.550  0.9204 -0.5372 -0.4308
 1360WAT     H2 4292   4.179   0.523   5.399  0.1390 -1.1114 -0.5134
 1361WAT      O 4293   3.424   4.225   4.346  0.3789  0.3356 -0.4109
 1361WAT     H1 4294   3.489   4.187   4.286 -0.5978  0.5206 -1.6165
 1361WAT     H2 4295   3.354   4.257   4.289  0.7920  3.3117  0.5927
 1362WAT      O 4296   1.916   0.588   0.013 -0.3881 -0.0747  0.1412
 1362WAT     H1 4297   1.842   0.619  -0.039 -0.6897 -1.5027 -0.3116
 1362WAT     H2 4298   1.911   0.640   0.094 -1.0818  0.7767 -0.4245
 1363WAT      O 4299   1.739   3.579   4.512 -0.7776  0.3134 -0.6079
 1363WAT     H1 4300   1.823   3.541   4.538 -2.2610 -1.6650  1.6205
 1363WAT     H2 4301   1.727   3.652   4.572 -1.4751 -0.5610  0.3347
 1364WAT      O 4302   2.941   2.233   5.202 -0.0045  0.0804  0.1544
 1364WAT     H1 4303   3.020   2.275   5.235  0.4367  0.1797 -0.9850
 1364WAT     H2 4304   2.888   2.217   5.280  1.0686  0.1535  0.9209
 1365WAT      O 4305   3.877   4.047   4.287 -0.1223  0.4209 -0.1165
 1365WAT     H1 4306   3.793   4.005   4.268 -0.7263  1.1845  0.7558
 1365WAT     H2 4307   3.907   4.080   4.203 -0.6339  0.0256 -0.4624
 1366WAT      O 4308   2.717   5.006   4.580  0.4934 -0.2912 -0.2353
 1366WAT     H1 4309   2.797   5.043   4.541  0.7459 -0.9923 -0.4080
 1366WAT     H2 4310   2.653   5.010   4.510 -0.0124  1.4277  0.2768
 1367WAT      O 4311   1.681   4.891   3.808 -0.1974 -0.5311 -0.2038
 1367WAT     H1 4312   1.746   4.958   3.786 -1.3293  0.3527 -0.9917
 1367WAT     H2 4313   1.612   4.938   3.855  0.3491 -1.7125  1.8765
 1368WAT      O 4314   1.561   1.057   5.680 -0.3776  0.3667  0.2403
 1368WAT     H1 4315   1.634   1.080   5.737  1.8329 -0.2396 -2.1787
 1368WAT     H2 4316   1.551   0.963   5.690 -0.8113  0.4425  0.5374
 1369WAT      O 4317   0.493   1.274   0.283 -0.2845  0.1314  0.2150
 1369WAT     H1 4318   0.575   1.292   0.329 -0.5255  2.2024 -0.0968
 1369WAT     H2 4319   0.456   1.199   0.329  1.6369 -0.7090  0.5176
 1370WAT      O 4320   2.874   4.717   3.410 -0.5143  0.3580 -0.1712
 1370WAT     H1 4321   2.837   4.702   3.323 -1.6223  1.4474  0.0674
 1370WAT     H2 4322   2.807   4.684   3.470  0.7735 -1.5241  0.2955
 1371WAT      O 4323   2.762   1.837   5.556  0.0576  0.2030  0.0965
 1371WAT     H1 4324   2.711   1.854   5.636  0.4689 -0.1949  0.4538
 1371WAT     H2 4325   2.740   1.747   5.532  1.0067 -0.1774  0.5832
 1372WAT      O 4326   1.393   1.273   1.164 -0.1116  0.3920 -0.5254
 1372WAT     H1 4327   1.480   1.293   1.198  0.1565 -1.2200 -0.1804
 1372WAT     H2 4328   1.402   1.282   1.069  0.2806  0.7657 -0.4546
 1373WAT      O 4329   3.992   2.016   4.386 -0.1676 -0.2388  0.1444
 1373WAT     H1 4330   4.088   2.021   4.383 -0.1862 -0.0729 -0.2038
 1373WAT     H2 4331   3.974   1.954   4.457  0.1585  0.9636  1.3466
 1374WAT      O 4332   2.043   2.790   5.813 -0.1627 -0.0057  0.0137
 1374WAT     H1 4333   2.069   2.734   5.886  1.7259 -1.2112 -1.4830
 1374WAT     H2 4334   1.958   2.755   5.785 -1.3337  0.9882  2.0295
 1375WAT      O 4335   2.330   5.560   1.043  0.2766 -0.3855 -0.0825
 1375WAT     H1 4336   2.327   5.644   1.088  0.4885 -0.7233  0.5736
 1375WAT     H2 4337   2.272   5.503   1.093  1.2795 -1.0459  0.3853
 1376WAT      O 4338   2.290   4.328   0.803 -0.1858  0.2887  0.2598
 1376WAT     H1 4339   2.333   4.243   0.806  0.5380  0.6668  0.8620
 1376WAT     H2 4340   2.233   4.323   0.726 -0.0549 -0.6857  0.2145
 1377WAT      O 4341   2.016   2.775   5.159 -0.0738 -0.1342  0.2471
 1377WAT     H1 4342   1.939   2.720   5.144  0.5967 -0.9565 -0.2675
 1377WAT     H2 4343   1.980   2.861   5.179 -1.1531 -0.8219  1.3789
 1378WAT      O 4344   1.652   4.886   4.837 -0.6234  0.4903  0.4599
 1378WAT     H1 4345   1.719   4.820   4.855 -0.1194  0.4351 -1.3882
 1378WAT     H2 4346   1.622   4.914   4.923  0.4629 -0.8227  1.3061
 1379WAT      O 4347   1.748   2.515   3.886 -0.0266  0.2713  0.4992
 1379WAT     H1 4348   1.793   2.522   3.802  0.8780  1.5930  1.0718
 1379WAT     H2 4349   1.677   2.579   3.880 -1.2932 -1.0986 -0.0121
 1380WAT      O 4350   2.141   5.410   0.801 -0.0299  0.3611  0.3279
 1380WAT     H1 4351   2.216   5.446   0.849  0.0605  0.0728  0.4059
 1380WAT     H2 4352   2.117   5.479   0.739  0.9444  0.0849 -0.3971
 1381WAT      O 4353   1.543   1.897   5.570  0.0534 -0.3168 -0.0970
 1381WAT     H1 4354   1.618   1.855   5.612 -0.8441 -0.4044  1.5077
 1381WAT     H2 4355   1.577   1.983   5.543  0.8910 -0.5795  0.0771
 1382WAT      O 4356   0.223   3.258   5.556  0.0408 -0.5236 -0.0496
 1382WAT     H1 4357   0.270   3.188   5.601 -0.9850 -0.9876  0.3302
 1382WAT     H2 4358   0.131   3.230   5.557 -0.3025  0.5310 -0.4490
 1383WAT      O 4359   3.106   4.921   3.638  0.6377 -0.0244  0.0774
 1383WAT     H1 4360   3.048   4.961   3.573  0.9113 -0.7940 -0.6548
 1383WAT     H2 4361   3.168   4.871   3.587 -0.6856 -2.7893  0.9776
 1384WAT      O 4362   3.711   5.451   5.218 -0.2133  0.5287 -0.2315
 1384WAT     H1 4363   3.774   5.382   5.239  0.2206  0.6600 -1.0597
 1384WAT     H2 4364   3.697   5.496   5.302 -2.4169 -2.0455  0.8995
 1385WAT      O 4365   1.215   4.746   3.545  0.1222  0.4437  0.8859
 1385WAT     H1 4366   1.297   4.721   3.503 -0.4822  0.0255 -0.0786
 1385WAT     H2 4367   1.177   4.664   3.575 -1.4255  0.1890 -1.4709
 1386WAT      O 4368   1.779   4.998   5.663  0.4018  0.0943 -0.4196
 1386WAT     H1 4369   1.822   4.996   5.577  1.0741  1.0299 -0.1285
 1386WAT     H2 4370   1.802   5.084   5.699 -0.1405 -0.1550  0.5622
 1387WAT      O 4371   2.266   2.851   4.460  0.4942  0.2908 -0.2367
 1387WAT     H1 4372   2.221   2.935   4.460  0.9759  0.5679  0.6992
 1387WAT     H2 4373   2.339   2.863   4.520  0.0508 -1.0751  0.6330
 1388WAT      O 4374   1.851   3.989   4.620  0.5200  0.8401 -0.3004
 1388WAT     H1 4375   1.946   3.987   4.611  0.7610  1.8306  1.5858
 1388WAT     H2 4376   1.822   4.061   4.565  1.2098  2.3800  1.2526
 1389WAT      O 4377   0.253   2.687   3.907 -0.1754 -0.0133  0.6895
 1389WAT     H1 4378   0.236   2.775   3.874 -0.5977 -0.4363 -0.2672
 1389WAT     H2 4379   0.348   2.676   3.901 -0.0421  0.6191  1.4777
 1390WAT      O 4380   4.143   4.160   2.052  0.3105 -0.1228  0.5550
 1390WAT     H1 4381   4.069   4.139   1.994  0.9473 -0.4206 -0.1642
 1390WAT     H2 4382   4.216   4.110   2.017  1.0997  0.9131  0.6600
 1391WAT      O 4383   3.881   2.776   4.610  0.0387  0.3102 -0.1638
 1391WAT     H1 4384   3.904   2.715   4.680 -0.6878  0.2727  0.0582
 1391WAT     H2 4385   3.833   2.722   4.547 -1.8094  0.8897  0.6818
 1392WAT      O 4386   1.395   4.652   0.644  0.1133 -0.0758 -0.0516
 1392WAT     H1 4387   1.398   4.625   0.736 -0.0083  0.0360 -0.0138
 1392WAT     H2 4388   1.309   4.692   0.634 -0.8280 -2.1553 -0.8096
 1393WAT      O 4389   3.140   4.071   0.897 -0.0242 -0.3497  0.7982
 1393WAT     H1 4390   3.160   4.048   0.988  1.7043 -1.6497  0.1424
 1393WAT     H2 4391   3.122   3.988   0.854  0.6310  0.0808 -0.3665
 1394WAT      O 4392   3.249   0.357   1.045 -0.0524 -0.1703  0.4161
 1394WAT     H1 4393   3.317   0.333   0.982 -0.2680 -2.2049  0.8901
 1394WAT     H2 4394   3.167   0.348   0.996 -0.1005  0.5055  0.3597
 1395WAT      O 4395   1.408   3.800   2.495 -0.4798 -0.1043  0.2358
 1395WAT     H1 4396   1.431   3.795   2.588  0.6358 -0.6041 -0.0592
 1395WAT     H2 4397   1.360   3.719   2.478 -0.4088 -0.1611  0.3046
 1396WAT      O 4398   3.595   2.486   1.519 -0.2225  0.2723 -0.2625
 1396WAT     H1 4399   3.517   2.443   1.553 -0.2777 -0.2901 -1.0653
 1396WAT     H2 4400   3.563   2.545   1.451 -0.0815  1.1188  0.3950
 1397WAT      O 4401   3.808   3.938   2.787  0.2125 -0.2026  0.4198
 1397WAT     H1 4402   3.805   4.032   2.771 -1.3057 -0.3202 -0.0551
 1397WAT     H2 4403   3.870   3.905   2.722  0.3003  0.3881  0.1940
 1398WAT      O 4404   4.064   2.610   4.798 -0.6521 -0.0157  0.3038
 1398WAT     H1 4405   4.063   2.703   4.818 -2.2929  0.5712 -2.0640
 1398WAT     H2 4406   4.031   2.568   4.878 -0.2951  1.4639  1.2539
 1399WAT      O 4407   2.308   4.974   1.587  0.1998  0.2668  0.1487
 1399WAT     H1 4408   2.252   5.024   1.647  0.2735  0.5931 -0.0546
 1399WAT     H2 4409   2.261   4.891   1.575 -0.6592  0.8413 -0.6555
 1400WAT      O 4410   2.554   0.250   4.648  0.3825 -0.5690  0.4520
 1400WAT     H1 4411   2.622   0.202   4.601 -0.2246 -2.3170  1.2275
 1400WAT     H2 4412   2.584   0.251   4.739 -0.0328 -0.2667  0.5894
 1401WAT      O 4413   0.805   2.529   3.065 -0.4572  0.7124 -0.1632
 1401WAT     H1 4414   0.816   2.505   2.973 -2.4752 -0.3037 -0.2038
 1401WAT     H2 4415   0.893   2.522   3.103  0.4327  1.3090 -2.0334
 1402WAT      O 4416   2.658   2.111   5.180  0.2060 -0.2033  0.0593
 1402WAT     H1 4417   2.734   2.055   5.167  0.1822  0.4744 -5.5338
 1402WAT     H2 4418   2.583   2.057   5.156 -0.9178 -0.0388  2.8040
 1403WAT      O 4419   4.604   3.554   5.551 -0.4676 -0.7150 -0.0650
 1403WAT     H1 4420   4.668   3.484   5.563 -0.1905 -0.4035  0.2879
 1403WAT     H2 4421   4.520   3.513   5.572 -0.4038 -1.1461 -0.6021
 1404WAT      O 4422   4.244   2.312   0.013 -0.5701  0.1444 -0.6396
 1404WAT     H1 4423   4.182   2.372  -0.028 -0.2598  1.0055  0.0985
 1404WAT     H2 4424   4.196   2.274   0.086 -0.3355  0.5770 -0.2544
 1405WAT      O 4425   2.039   4.669   0.506  0.5518  0.0787  0.5236
 1405WAT     H1 4426   2.050   4.738   0.571  1.6872  1.2673 -0.8627
 1405WAT     H2 4427   2.094   4.696   0.432 -1.7544 -0.4649 -1.5287
 1406WAT      O 4428   1.663   1.119   4.222 -0.2886 -1.0292 -0.3659
 1406WAT     H1 4429   1.695   1.070   4.298  0.9317  0.2934  0.0152
 1406WAT     H2 4430   1.580   1.156   4.251  0.3154 -0.2701  0.4909
 1407WAT      O 4431   3.925   3.519   5.007  0.3606 -0.4646  0.5177
 1407WAT     H1 4432   3.849   3.520   5.065  1.1309  0.8528  1.5493
 1407WAT     H2 4433   3.888   3.503   4.920 -1.0039 -0.6726  1.1133
 1408WAT      O 4434   2.163   3.243   2.331  0.2341  0.0238 -0.1551
 1408WAT     H1 4435   2.135   3.307   2.397  0.0590  0.3107 -0.5044
 1408WAT     H2 4436   2.103   3.170   2.341  2.5280 -1.7052  2.6541
 1409WAT      O 4437   3.371   3.556   3.921  0.0019  0.3781  0.2181
 1409WAT     H1 4438   3.385   3.462   3.908  1.5681  0.5948  0.0781
 1409WAT     H2 4439   3.278   3.569   3.905 -0.4154 -1.2768  1.0142
 1410WAT      O 4440   1.868   2.513   4.996 -0.3661  0.6796  0.1372
 1410WAT     H1 4441   1.864   2.479   5.085  0.3112  0.3852  0.0606
 1410WAT     H2 4442   1.778   2.509   4.964 -0.2086 -1.8807 -0.1888
 1411WAT      O 4443   4.813   3.554   3.170  0.2439 -0.0792 -0.0447
 1411WAT     H1 4444   4.780   3.527   3.085  1.5842  1.3846 -1.1040
 1411WAT     H2 4445   4.735   3.564   3.225 -0.5217 -2.8973 -0.4575
 1412WAT      O 4446   1.670   4.480   0.293  0.2401 -0.1427 -0.3294
 1412WAT     H1 4447   1.693   4.526   0.212 -0.8780 -0.7013 -0.9989
 1412WAT     H2 4448   1.683   4.387   0.273  1.8032 -0.1936  0.7798
 1413WAT      O 4449   3.299   4.596   0.122  0.4940  0.0769 -0.4943
 1413WAT     H1 4450   3.315   4.604   0.216 -0.7940 -0.4469 -0.2042
 1413WAT     H2 4451   3.261   4.680   0.096  0.5978  0.1230 -0.4986
 1414WAT      O 4452   3.832   3.773   4.924  0.2146 -0.4224 -0.0561
 1414WAT     H1 4453   3.750   3.737   4.958  0.0586 -0.8529 -0.8903
 1414WAT     H2 4454   3.900   3.723   4.969  0.1325  1.5356  2.5113
 1415WAT      O 4455   2.998   4.097   1.840 -0.3769  0.0609  0.1449
 1415WAT     H1 4456   2.911   4.136   1.830 -0.2558  0.5019  0.7884
 1415WAT     H2 4457   3.058   4.163   1.806 -0.3710 -0.8619 -1.7845
 1416WAT      O 4458   4.250   4.937   5.606  0.0308  0.6347 -0.3258
 1416WAT     H1 4459   4.298   4.888   5.673 -0.3803  1.4694  0.6085
 1416WAT     H2 4460   4.204   5.006   5.655 -0.6758  0.9618 -1.4114
 1417WAT      O 4461   3.581   5.299   3.108 -0.1981 -0.0871 -0.7511
 1417WAT     H1 4462   3.541   5.225   3.154 -0.8292  0.2126 -0.8137
 1417WAT     H2 4463   3.536   5.302   3.024 -1.8707  1.7957  0.1233
 1418WAT      O 4464   3.649   3.673   5.106  0.1852 -0.2806  0.6794
 1418WAT     H1 4465   3.705   3.737   5.150  1.3599 -0.1578 -0.9147
 1418WAT     H2 4466   3.561   3.693   5.138  0.9687 -0.3901  3.1511
 1419WAT      O 4467   2.505   1.122   5.445 -0.6552  0.3451 -0.3121
 1419WAT     H1 4468   2.434   1.160   5.497 -0.4906 -0.3933  0.4819
 1419WAT     H2 4469   2.482   1.141   5.354 -0.3715  2.6964  0.0426
 1420WAT      O 4470   0.115   3.232   3.985 -0.1959  0.1100 -0.5312
 1420WAT     H1 4471   0.040   3.204   4.036  1.0166 -2.0595  0.2124
 1420WAT     H2 4472   0.170   3.281   4.046  0.4647 -1.0652 -0.1390
 1421WAT      O 4473   2.770   5.383   1.573 -0.0319  0.1282  0.1358
 1421WAT     H1 4474   2.841   5.447   1.572  0.0183  0.0851  0.6357
 1421WAT     H2 4475   2.733   5.386   1.485 -0.1553  0.9827  0.2112
 1422WAT      O 4476   3.470   2.920   5.753  0.1585  0.0259  0.5118
 1422WAT     H1 4477   3.549   2.959   5.717 -0.9675  2.4593  0.4784
 1422WAT     H2 4478   3.494   2.896   5.842  1.0749  0.2684  0.3396
 1423WAT      O 4479   2.710   4.077   0.191 -0.1191 -0.0158 -0.1511
 1423WAT     H1 4480   2.788   4.113   0.148 -0.9425  1.4546 -0.4813
 1423WAT     H2 4481   2.670   4.152   0.236 -2.0243 -0.4415 -1.0338
 1424WAT      O 4482   1.653   4.393   2.586 -0.1665  0.2742  0.1756
 1424WAT     H1 4483   1.711   4.449   2.535 -1.3372  1.0269 -0.3784
 1424WAT     H2 4484   1.704   4.369   2.663  0.5629  1.6239  0.1336
 1425WAT      O 4485   2.130   3.990   2.909  0.2074 -0.5070  0.1703
 1425WAT     H1 4486   2.142   3.895   2.912 -0.6329 -0.6226  0.1215
 1425WAT     H2 4487   2.169   4.017   2.826  0.6907 -0.7682  0.3073
 1426WAT      O 4488   0.475   4.292   2.860  0.0684  0.0507 -0.4382
 1426WAT     H1 4489   0.449   4.251   2.943  1.5541  1.5355  0.8349
 1426WAT     H2 4490   0.466   4.386   2.876  0.5949  0.3742 -1.8966
 1427WAT      O 4491   2.591   4.024   0.983 -0.0882 -0.1774 -0.5681
 1427WAT     H1 4492   2.685   4.029   0.963  0.0980  0.7257  0.4482
 1427WAT     H2 4493   2.586   3.981   1.068 -0.3363  2.4522  0.8645
 1428WAT      O 4494   3.982   4.691   0.313 -0.3322 -0.3221  0.9079
 1428WAT     H1 4495   4.071   4.660   0.295 -0.0562  2.0177 -2.7995
 1428WAT     H2 4496   3.925   4.623   0.276  0.1659  0.7296 -2.0868
 1429WAT      O 4497   1.385   4.166   2.980  0.3879 -0.3012 -0.4187
 1429WAT     H1 4498   1.363   4.145   3.071  0.6580  1.1091 -0.0002
 1429WAT     H2 4499   1.307   4.142   2.930  0.6581 -2.1855 -0.0027
 1430WAT      O 4500   2.317   3.239   3.779  0.2799  0.3596 -0.0561
 1430WAT     H1 4501   2.389   3.246   3.842 -1.2986 -0.6393  1.9904
 1430WAT     H2 4502   2.261   3.170   3.815 -1.6527  1.0404 -1.6013
 1431WAT      O 4503   3.167   4.334   1.193 -0.0369 -0.0001  0.3351
 1431WAT     H1 4504   3.189   4.241   1.186  0.2953  0.1153 -0.2147
 1431WAT     H2 4505   3.121   4.354   1.112  1.4084  0.7050 -0.3420
 1432WAT      O 4506   2.344   4.552   0.614  1.2305  0.3696 -0.0093
 1432WAT     H1 4507   2.269   4.598   0.651  0.7330 -0.4740  0.0589
 1432WAT     H2 4508   2.371   4.491   0.682  0.0691 -1.4709 -1.0789
 1433WAT      O 4509   2.370   4.983   4.647 -0.4917  0.0279 -0.1802
 1433WAT     H1 4510   2.349   4.954   4.736  0.9857  1.9298  0.8710
 1433WAT     H2 4511   2.450   4.935   4.625  0.7010  1.5326  0.6768
 1434WAT      O 4512   2.544   2.849   4.479 -0.0142  0.1400 -0.6449
 1434WAT     H1 4513   2.533   2.801   4.561  0.8608  0.4981 -0.3117
 1434WAT     H2 4514   2.634   2.831   4.451  1.3800  3.6926  0.9195
 1435WAT      O 4515   1.799   2.543   4.169  0.0902 -0.0389 -0.0129
 1435WAT     H1 4516   1.745   2.619   4.147 -0.9349 -0.6688  0.2323
 1435WAT     H2 4517   1.824   2.506   4.084 -1.0905 -0.5596 -0.1619
 1436WAT      O 4518   2.445   5.340   3.973 -0.5978 -0.4229  0.2258
 1436WAT     H1 4519   2.415   5.413   4.028 -2.3278 -1.3760  0.6088
 1436WAT     H2 4520   2.487   5.383   3.898  0.2695  0.9276  1.4241
 1437WAT      O 4521   1.906   4.525   1.612 -0.3828 -0.6007 -0.2316
 1437WAT     H1 4522   1.919   4.579   1.691 -1.2498 -2.1291  1.0258
 1437WAT     H2 4523   1.992   4.523   1.570  0.4438 -0.7671  1.3785
 1438WAT      O 4524   3.171   1.598   2.174 -0.0084 -0.6490 -0.1656
 1438WAT     H1 4525   3.176   1.584   2.079 -0.8291  0.3827 -0.3823
 1438WAT     H2 4526   3.078   1.610   2.191  0.0483 -1.6159  0.9100
 1439WAT      O 4527   2.444   3.877   2.167 -0.3115  0.4128  0.7426
 1439WAT     H1 4528   2.471   3.846   2.081 -0.3124 -0.5951  1.0911
 1439WAT     H2 4529   2.425   3.797   2.217 -3.7819  0.9637  0.5851
 1440WAT      O 4530   3.453   4.306   1.302  0.6786  0.1898 -0.0765
 1440WAT     H1 4531   3.413   4.224   1.274  1.3141  0.1363 -0.8657
 1440WAT     H2 4532   3.543   4.301   1.270  0.7321  1.1858 -0.1246
 1441WAT      O 4533   2.006   4.319   0.314  0.0720  0.2929 -0.1852
 1441WAT     H1 4534   2.019   4.340   0.407 -1.2497  0.2519  0.0290
 1441WAT     H2 4535   1.958   4.395   0.280  2.4149  1.3440 -1.3916
 1442WAT      O 4536   4.623   4.289   1.081 -0.2515 -0.4143 -0.4651
 1442WAT     H1 4537   4.633   4.357   1.148  0.1765 -1.4805  0.5772
 1442WAT     H2 4538   4.558   4.229   1.116 -2.0550  0.3997 -2.2130
 1443WAT      O 4539   2.849   4.371   1.326  0.7641  0.5478  0.4439
 1443WAT     H1 4540   2.847   4.457   1.283  1.2363  1.0721  1.4445
 1443WAT     H2 4541   2.800   4.383   1.407 -1.8194 -0.9478 -0.7730
 1444WAT      O 4542   4.674   2.141   4.118  0.1409  0.0596  0.5445
 1444WAT     H1 4543   4.625   2.206   4.168 -1.8515 -1.3040  0.4618
 1444WAT     H2 4544   4.685   2.067   4.177  2.3580  0.3900  0.6259
 1445WAT      O 4545   3.033   3.796   5.428 -0.0757 -0.0806 -0.2280
 1445WAT     H1 4546   2.989   3.736   5.489  1.3853 -0.1014  0.8722
 1445WAT     H2 4547   3.107   3.745   5.394  0.2941  0.6052 -0.4664
 1446WAT      O 4548   4.222   2.657   2.810  0.5014  0.1527  0.4805
 1446WAT     H1 4549   4.296   2.715   2.827  0.3536  0.9853 -1.3962
 1446WAT     H2 4550   4.247   2.610   2.730 -1.0154  0.5538 -0.2711
 1447WAT      O 4551   2.831   3.791   1.858  0.2846  0.2757  0.6106
 1447WAT     H1 4552   2.822   3.852   1.932  0.5920 -0.7233  1.4947
 1447WAT     H2 4553   2.897   3.728   1.887  0.7711  0.1425 -0.7226
 1448WAT      O 4554   3.507   0.634   3.527 -0.9026  0.2702 -0.4856
 1448WAT     H1 4555   3.542   0.673   3.447  0.2807 -0.0536 -0.1501
 1448WAT     H2 4556   3.512   0.540   3.511 -0.9180  0.2107 -0.1314
 1449WAT      O 4557   0.336   2.594   5.248  0.5872 -0.0022 -0.4010
 1449WAT     H1 4558   0.268   2.588   5.180  0.8122  0.6739 -0.6960
 1449WAT     H2 4559   0.290   2.576   5.330 -0.2643  1.8171 -0.4304
 1450WAT      O 4560   2.765   0.825   4.830  0.6783  0.0238  0.3688
 1450WAT     H1 4561   2.793   0.909   4.794  2.4858 -0.3297  0.8338
 1450WAT     H2 4562   2.688   0.801   4.778  1.8434  0.6084 -1.7386
 1451WAT      O 4563   3.412   2.465   4.991  0.0445 -0.2615  0.7519
 1451WAT     H1 4564   3.413   2.539   4.930 -0.9675 -0.1011  0.9238
 1451WAT     H2 4565   3.337   2.481   5.048 -0.5236 -1.7018  0.4531
 1452WAT      O 4566   2.834   5.045   1.235 -0.1322  0.1684 -0.3075
 1452WAT     H1 4567   2.888   5.003   1.303 -2.2847 -0.2217  1.2801
 1452WAT     H2 4568   2.842   4.988   1.159  0.6943 -0.5676  0.3099
 1453WAT      O 4569   2.456   4.640   3.256 -0.2971 -0.0768  0.3176
 1453WAT     H1 4570   2.385   4.637   3.192 -0.8061 -4.5157  0.7936
 1453WAT     H2 4571   2.412   4.657   3.339  0.1592  3.7312 -0.0170
 1454WAT      O 4572   0.465   2.052   2.587 -0.6156  0.3159  0.2033
 1454WAT     H1 4573   0.496   2.143   2.586 -2.6991  1.0854 -0.7915
 1454WAT     H2 4574   0.518   2.008   2.521 -0.3962  1.1040 -0.1578
 1455WAT      O 4575   2.715   0.058   5.081 -0.3141 -0.1598  0.2188
 1455WAT     H1 4576   2.771  -0.001   5.031  1.0578  0.7032  0.6614
 1455WAT     H2 4577   2.632   0.011   5.091 -0.1607 -0.8980 -1.6624
 1456WAT      O 4578   2.508   4.204   3.533 -0.0913 -0.1327  0.2584
 1456WAT     H1 4579   2.510   4.258   3.612  0.4175 -1.5941  1.2842
 1456WAT     H2 4580   2.507   4.267   3.461 -0.0561  1.2344  1.4102
 1457WAT      O 4581   3.718   1.452   3.911  0.5767 -0.4647  0.1434
 1457WAT     H1 4582   3.724   1.534   3.861  3.1053 -0.9701 -0.5262
 1457WAT     H2 4583   3.661   1.474   3.985 -0.4955  1.2903 -1.1010
 1458WAT      O 4584   1.962   0.986   3.368 -0.2474 -0.4310  0.2640
 1458WAT     H1 4585   2.001   0.919   3.312 -0.2940  0.4194 -0.8367
 1458WAT     H2 4586   1.933   0.939   3.446  0.6945 -1.5004 -0.0009
 1459WAT      O 4587   2.886   5.455   4.947 -0.3976  0.7038  0.2504
 1459WAT     H1 4588   2.899   5.415   4.861  0.4573 -2.4784  1.7185
 1459WAT     H2 4589   2.802   5.420   4.978  0.5245 -0.3390  1.7097
 1460WAT      O 4590   0.927   3.205   2.283 -0.0665  0.2765  0.4367
 1460WAT     H1 4591   1.001   3.197   2.223 -1.4961 -0.5128 -1.3255
 1460WAT     H2 4592   0.876   3.278   2.249 -1.1363 -0.4592  0.4107
 1461WAT      O 4593   3.020   2.342   2.002  0.2453  0.1957 -0.0606
 1461WAT     H1 4594   3.036   2.418   1.947 -2.0809  0.6917 -0.1916
 1461WAT     H2 4595   3.050   2.367   2.089  0.2509  0.9607 -0.2814
 1462WAT      O 4596   3.165   1.100   2.853 -0.3853 -0.2232 -0.0046
 1462WAT     H1 4597   3.235   1.164   2.860 -0.9675  0.4826 -0.4458
 1462WAT     H2 4598   3.089   1.143   2.892 -1.0983 -0.1366 -1.3984
 1463WAT      O 4599   3.863   5.461   3.203  0.1013 -0.4327 -0.0950
 1463WAT     H1 4600   3.881   5.372   3.234  0.7570 -0.5893 -0.8885
 1463WAT     H2 4601   3.777   5.455   3.160  0.4194 -0.8324 -0.6880
 1464WAT      O 4602   2.214   3.082   3.469  0.3045  0.4745 -0.1501
 1464WAT     H1 4603   2.153   3.025   3.424  0.3333  0.2554  0.0876
 1464WAT     H2 4604   2.198   3.169   3.432  0.3651  0.2863 -0.6160
 1465WAT      O 4605   3.432   5.291   3.840  0.4442  0.4332  0.4575
 1465WAT     H1 4606   3.370   5.224   3.809  0.6443  0.7571 -0.7020
 1465WAT     H2 4607   3.418   5.365   3.781  1.7421  0.6161  0.3604
 1466WAT      O 4608   2.907   3.359   3.885 -0.4561  0.0484  0.6854
 1466WAT     H1 4609   2.847   3.401   3.947 -1.3388 -0.2831  0.0913
 1466WAT     H2 4610   2.870   3.271   3.872  1.1278 -0.7892  1.5980
 1467WAT      O 4611   4.013   4.418   5.205 -0.2989 -0.5602 -0.1546
 1467WAT     H1 4612   4.070   4.348   5.173 -0.5197 -0.6321 -0.3961
 1467WAT     H2 4613   4.068   4.469   5.264 -0.4940 -1.6995  1.0401
 1468WAT      O 4614   2.231   1.818   2.544 -0.4823 -0.2628 -0.3674
 1468WAT     H1 4615   2.158   1.869   2.579 -0.4598 -0.8933  0.6190
 1468WAT     H2 4616   2.283   1.795   2.621  1.6127  1.4493 -1.1706
 1469WAT      O 4617   0.654   3.931   1.345  0.0534  0.7480 -0.6501
 1469WAT     H1 4618   0.739   3.968   1.367 -0.1133  1.5975 -1.3644
 1469WAT     H2 4619   0.674   3.853   1.294  0.4082 -0.1111  0.7462
 1470WAT      O 4620   3.758   4.039   1.367  1.0128  0.1154  0.0049
 1470WAT     H1 4621   3.854   4.044   1.369  1.2154 -2.4500 -0.1478
 1470WAT     H2 4622   3.739   3.945   1.367 -1.5392  0.5652  0.7042
 1471WAT      O 4623   1.154   3.481   2.449 -0.2332 -0.1977 -0.6013
 1471WAT     H1 4624   1.202   3.408   2.410  0.7255 -0.2433  0.6157
 1471WAT     H2 4625   1.102   3.517   2.377 -0.2450 -1.6800 -1.3678
 1472WAT      O 4626   4.283   2.935   3.587 -0.4284  0.3758  0.1200
 1472WAT     H1 4627   4.293   3.029   3.604  0.3364  0.3393 -0.0990
 1472WAT     H2 4628   4.284   2.895   3.674 -2.5368  0.7039  0.3545
 1473WAT      O 4629   3.364   0.205   4.927 -1.2289 -0.2799 -0.2058
 1473WAT     H1 4630   3.360   0.176   5.018  0.3535  1.1870  0.3716
 1473WAT     H2 4631   3.382   0.125   4.877 -1.0080 -0.9276  0.8893
 1474WAT      O 4632   3.638   3.720   3.972 -0.3903 -0.2134  0.0311
 1474WAT     H1 4633   3.557   3.672   3.957 -0.2743 -0.6058  0.6214
 1474WAT     H2 4634   3.632   3.796   3.914 -0.9998 -0.4439 -0.2175
 1475WAT      O 4635   3.089   4.431   4.523 -0.3312  0.3975  0.0822
 1475WAT     H1 4636   3.148   4.504   4.503  1.8026 -1.3678 -0.3966
 1475WAT     H2 4637   3.057   4.450   4.611  1.8443  0.9251  0.8347
 1476WAT      O 4638   3.349   5.202   0.763 -0.0723  0.5148 -0.3569
 1476WAT     H1 4639   3.370   5.122   0.811 -0.1705 -0.1972 -1.4866
 1476WAT     H2 4640   3.404   5.200   0.685 -1.9550  0.1862 -1.7688
 1477WAT      O 4641   3.964   0.049   3.247  0.0226  0.4209 -0.3331
 1477WAT     H1 4642   3.990   0.039   3.338  2.2514 -0.2900 -0.9712
 1477WAT     H2 4643   3.919  -0.033   3.226  2.6020 -1.0198 -0.7330
 1478WAT      O 4644   1.804   1.414   4.411 -0.0974  0.4152 -0.1071
 1478WAT     H1 4645   1.836   1.332   4.448 -1.8645 -0.6030 -0.7165
 1478WAT     H2 4646   1.815   1.478   4.482  2.7240  0.0706 -0.1289
 1479WAT      O 4647   3.629   3.027   3.914  0.3844 -0.6525 -0.1221
 1479WAT     H1 4648   3.666   3.048   3.829 -0.9725  0.9055 -0.3747
 1479WAT     H2 4649   3.664   3.094   3.973 -0.1508 -0.6034  0.1479
 1480WAT      O 4650   1.727   4.371   3.574  0.7920 -0.4276 -0.3842
 1480WAT     H1 4651   1.818   4.351   3.595  1.1464 -1.5424 -2.6655
 1480WAT     H2 4652   1.713   4.458   3.609  2.5776 -0.4504  0.4868
 1481WAT      O 4653   4.320   3.725   3.183  0.3458 -0.1418 -0.0828
 1481WAT     H1 4654   4.311   3.667   3.258  1.5882  0.3775  0.4825
 1481WAT     H2 4655   4.319   3.813   3.220  1.0517  0.1184 -0.6548
 1482WAT      O 4656   4.782   3.829   5.776 -0.5581  0.5183 -0.7840
 1482WAT     H1 4657   4.799   3.910   5.823 -1.2992  1.6937 -2.4170
 1482WAT     H2 4658   4.846   3.828   5.705  0.2027 -0.9431 -0.1191
 1483WAT      O 4659   1.863   2.209   4.544  0.0750 -0.1573 -0.5226
 1483WAT     H1 4660   1.867   2.301   4.571 -2.7817  0.2183 -1.0515
 1483WAT     H2 4661   1.843   2.212   4.451 -0.7559 -1.2624 -0.4098
 1484WAT      O 4662   1.454   1.597   1.710 -0.1890  0.2456  0.0158
 1484WAT     H1 4663   1.395   1.670   1.727  0.8625  1.0340  0.3589
 1484WAT     H2 4664   1.526   1.610   1.771  0.1157 -0.9696 -0.0666
 1485WAT      O 4665   4.672   2.136   2.931 -0.4228  0.1576  0.2055
 1485WAT     H1 4666   4.730   2.186   2.988  0.3316 -1.2672  0.7625
 1485WAT     H2 4667   4.666   2.187   2.851 -0.1959  1.4136  0.9644
 1486WAT      O 4668   3.933   0.216   1.481 -0.7969 -0.0535 -0.5726
 1486WAT     H1 4669   3.954   0.309   1.484 -0.8621 -0.0682  0.8860
 1486WAT     H2 4670   3.970   0.180   1.562 -0.0847 -1.4560 -1.4787
 1487WAT      O 4671   1.953   2.859   4.052 -0.1914 -0.5269  0.3420
 1487WAT     H1 4672   1.957   2.919   4.127 -3.8131 -1.1480  1.2240
 1487WAT     H2 4673   1.959   2.916   3.976 -1.4185  0.7894  1.1651
 1488WAT      O 4674   3.353   4.710   3.149 -0.2118  0.2303  0.0905
 1488WAT     H1 4675   3.319   4.633   3.103  0.7608  0.3892 -0.9221
 1488WAT     H2 4676   3.274   4.754   3.182 -0.8507 -0.5975 -0.2884
 1489WAT      O 4677   2.206   0.915   2.642 -0.4880  0.6458 -0.5144
 1489WAT     H1 4678   2.123   0.870   2.631 -0.6885  1.2191 -1.4523
 1489WAT     H2 4679   2.236   0.934   2.553  1.4864 -1.0204 -0.2923
 1490WAT      O 4680   4.031   1.192   4.560 -0.4357 -0.8285  0.1933
 1490WAT     H1 4681   4.073   1.260   4.612  0.7091 -1.3654  0.0108
 1490WAT     H2 4682   3.951   1.170   4.609 -0.9636  0.7862  0.1193
 1491WAT      O 4683   3.846   0.181   5.290 -0.3200 -0.5442 -0.2480
 1491WAT     H1 4684   3.836   0.259   5.344 -1.3480 -0.5170 -0.4419
 1491WAT     H2 4685   3.849   0.109   5.353 -1.2174 -0.4882 -0.1220
 1492WAT      O 4686   0.114   3.332   1.580 -0.1041 -0.0126  0.3598
 1492WAT     H1 4687   0.057   3.400   1.614  1.4208  2.0434 -0.9553
 1492WAT     H2 4688   0.131   3.357   1.489  1.2971 -1.5978  0.1216
 1493WAT      O 4689   2.632   2.045   5.444 -0.5704 -0.3248 -0.5004
 1493WAT     H1 4690   2.683   1.976   5.487  0.7196  1.6732  1.3484
 1493WAT     H2 4691   2.645   2.029   5.351  2.4941 -0.6491 -0.1327
 1494WAT      O 4692   2.018   4.878   0.922 -0.2978  0.1283  0.0197
 1494WAT     H1 4693   2.040   4.863   1.014 -2.3483 -1.6600  0.3093
 1494WAT     H2 4694   1.937   4.828   0.909  0.5703 -0.6262 -3.0617
 1495WAT      O 4695   3.043   0.165   3.604 -0.7107  0.2292  0.3810
 1495WAT     H1 4696   2.966   0.190   3.554 -0.9142  0.2136  0.6799
 1495WAT     H2 4697   3.084   0.249   3.628 -0.9681  0.2595  0.7291
 1496WAT      O 4698   2.586   0.459   1.413  0.1770 -0.0544 -0.6358
 1496WAT     H1 4699   2.661   0.451   1.355 -1.2910 -0.7288 -2.5482
 1496WAT     H2 4700   2.613   0.415   1.493  1.9086 -0.0158 -1.1637
 1497WAT      O 4701   3.138   1.231   0.681  0.0921 -0.1826 -0.6065
 1497WAT     H1 4702   3.068   1.288   0.649  0.1856  0.8911  1.0014
 1497WAT     H2 4703   3.206   1.291   0.711 -0.0097 -1.0946  1.6002
 1498WAT      O 4704   3.003   5.064   2.308  0.3193  0.0141  0.2667
 1498WAT     H1 4705   3.052   5.143   2.329  0.4469 -0.6560  2.9648
 1498WAT     H2 4706   3.053   4.993   2.350 -0.4808 -1.3181 -0.9362
 1499WAT      O 4707   1.710   0.563   3.621 -0.1389  0.7323  0.0266
 1499WAT     H1 4708   1.785   0.534   3.568 -0.1271  0.5122  0.1640
 1499WAT     H2 4709   1.681   0.484   3.666 -0.8871  0.6728 -0.5524
 1500WAT      O 4710   0.662   3.762   1.144  0.1090 -0.9285 -0.2869
 1500WAT     H1 4711   0.626   3.839   1.102 -0.9274 -0.9751  0.4939
 1500WAT     H2 4712   0.735   3.736   1.088  0.1874  0.3459 -0.7935
 1501WAT      O 4713   1.930   2.417   1.563 -0.1657  0.0706  0.1170
 1501WAT     H1 4714   1.858   2.469   1.526 -0.9515 -0.7728  0.4152
 1501WAT     H2 4715   1.995   2.482   1.590  0.3923  0.7439 -2.5465
 1502WAT      O 4716   2.189   3.292   1.891  0.7044  0.1029  0.2521
 1502WAT     H1 4717   2.161   3.383   1.895  0.0037 -0.1287  1.2318
 1502WAT     H2 4718   2.107   3.242   1.899  0.7199 -0.6692 -3.0167
 1503WAT      O 4719   1.945   0.110   5.146  0.4629 -0.1724 -0.2928
 1503WAT     H1 4720   1.981   0.038   5.094 -1.1844 -1.7130  0.6181
 1503WAT     H2 4721   1.868   0.139   5.097 -0.6850 -1.1591  0.8459
 1504WAT      O 4722   1.666   3.992   1.114 -0.1179  0.2609 -0.3415
 1504WAT     H1 4723   1.733   3.942   1.160 -0.1519  1.1386  0.6888
 1504WAT     H2 4724   1.584   3.947   1.136 -0.0698  0.3235 -0.0292
 1505WAT      O 4725   4.173   4.282   0.394 -0.2210 -0.0473  0.4774
 1505WAT     H1 4726   4.125   4.340   0.334  1.3497  0.4263 -0.3562
 1505WAT     H2 4727   4.135   4.196   0.378  0.3144  0.0174 -1.4013
 1506WAT      O 4728   4.907   2.948   1.998 -0.3734 -0.8523 -0.0569
 1506WAT     H1 4729   4.913   3.019   1.934 -0.2321 -0.0904  0.7847
 1506WAT     H2 4730   4.813   2.931   2.006 -0.3938 -0.9420 -0.4436
 1507WAT      O 4731   2.270   0.258   3.394 -0.7355 -0.7375 -0.3476
 1507WAT     H1 4732   2.346   0.302   3.357 -0.1523 -1.7484 -0.3883
 1507WAT     H2 4733   2.291   0.248   3.487 -0.4985 -1.6201 -0.4816
 1508WAT      O 4734   4.269   0.768   3.450 -0.1996  0.1483  0.3330
 1508WAT     H1 4735   4.179   0.784   3.480 -0.6223 -1.5787  0.0753
 1508WAT     H2 4736   4.318   0.747   3.530 -0.9960 -2.9851  0.1113
 1509WAT      O 4737   0.794   2.972   4.310 -0.0613 -0.1500 -0.0448
 1509WAT     H1 4738   0.838   2.983   4.226 -1.7443  1.1108 -0.8305
 1509WAT     H2 4739   0.701   2.978   4.289 -0.5348 -0.0961  1.8801
 1510WAT      O 4740   2.121   5.487   5.139 -0.2244 -0.6917 -0.0509
 1510WAT     H1 4741   2.105   5.393   5.148  1.8841 -1.2351 -1.1626
 1510WAT     H2 4742   2.149   5.498   5.048 -0.1655  0.9772  0.1338
 1511WAT      O 4743   2.774   3.736   3.700  0.5318  0.1442  0.3727
 1511WAT     H1 4744   2.755   3.830   3.701  2.6863  0.6477  2.2219
 1511WAT     H2 4745   2.767   3.711   3.608 -3.4203  1.2913  0.2076
 1512WAT      O 4746   4.559   4.251   4.130  0.4583 -0.8793 -0.0369
 1512WAT     H1 4747   4.573   4.252   4.224 -0.4021 -1.0879  0.0977
 1512WAT     H2 4748   4.472   4.288   4.118  0.6956 -0.5458 -0.7752
 1513WAT      O 4749   1.465   4.557   0.895 -0.6401 -0.5235  0.3830
 1513WAT     H1 4750   1.553   4.546   0.859 -1.1852 -0.8116 -0.9181
 1513WAT     H2 4751   1.454   4.483   0.955  0.4878  0.2626  1.6268
 1514WAT      O 4752   2.041   3.067   2.935  0.8031 -0.2711  0.0233
 1514WAT     H1 4753   2.021   3.160   2.923 -0.0481 -0.4517  0.0129
 1514WAT     H2 4754   2.108   3.048   2.869 -0.2265 -0.0578 -1.1164
 1515WAT      O 4755   2.471   2.901   2.753 -0.0248 -0.4737 -0.1726
 1515WAT     H1 4756   2.533   2.827   2.751 -0.0041 -0.4537 -0.2773
 1515WAT     H2 4757   2.505   2.962   2.688 -0.0085 -0.3444 -0.0411
 1516WAT      O 4758   3.472   2.603   1.292 -0.4180 -0.1832 -0.4150
 1516WAT     H1 4759   3.410   2.549   1.243 -1.1305  1.2913 -1.2085
 1516WAT     H2 4760   3.530   2.640   1.226  1.5488 -1.7392  0.3328
 1517WAT      O 4761   1.692   3.181   2.886 -0.4779 -0.1046 -0.5426
 1517WAT     H1 4762   1.611   3.188   2.835 -0.3728 -1.0921 -0.8668
 1517WAT     H2 4763   1.760   3.214   2.828 -0.7560  1.7355  0.1058
 1518WAT      O 4764   2.300   5.060   5.464 -0.8105  0.8460 -0.3102
 1518WAT     H1 4765   2.267   4.972   5.482 -0.9255  1.2107  1.4329
 1518WAT     H2 4766   2.222   5.116   5.466 -0.5353  1.2168  0.2876
 1519WAT      O 4767   3.152   3.754   3.215  0.1352  0.0930 -0.9980
 1519WAT     H1 4768   3.152   3.762   3.120  0.2540  1.9199 -0.8764
 1519WAT     H2 4769   3.060   3.754   3.240 -0.0708 -3.3068 -1.2338
 1520WAT      O 4770   2.573   3.851   1.222  0.6970 -0.1632 -0.7217
 1520WAT     H1 4771   2.614   3.782   1.171  3.2396 -0.0872  1.0537
 1520WAT     H2 4772   2.588   3.826   1.313 -2.0664  0.6254  0.0501
 1521WAT      O 4773   3.402   4.332   2.744 -0.0681  0.5044 -0.7426
 1521WAT     H1 4774   3.460   4.329   2.668  3.0783 -0.5915  1.4540
 1521WAT     H2 4775   3.417   4.419   2.782  0.6455  0.0410  0.1029
 1522WAT      O 4776   4.735   3.578   1.285 -0.0412  0.5392 -0.3132
 1522WAT     H1 4777   4.801   3.648   1.288 -0.7521  1.2563 -0.9069
 1522WAT     H2 4778   4.763   3.516   1.351  0.6143  1.3892  0.2289
 1523WAT      O 4779   4.680   2.942   4.585  0.4457 -0.1566  0.3605
 1523WAT     H1 4780   4.628   2.867   4.615  0.0488  0.4256  1.1634
 1523WAT     H2 4781   4.711   2.983   4.665  0.8076  0.4368 -0.0778
 1524WAT      O 4782   1.044   4.237   1.328 -0.2723 -0.6974 -0.6667
 1524WAT     H1 4783   1.126   4.203   1.291 -0.4416 -1.5220 -0.3123
 1524WAT     H2 4784   1.028   4.318   1.280  1.0812 -0.1834 -0.3229
 1525WAT      O 4785   1.367   2.901   5.048  0.1384  0.2878  0.1796
 1525WAT     H1 4786   1.406   2.988   5.043 -0.3391  0.5357  0.7194
 1525WAT     H2 4787   1.337   2.893   5.139 -1.1135  0.1295 -0.2229
 1526WAT      O 4788   2.736   4.437   5.298  0.0827  0.3364  0.3402
 1526WAT     H1 4789   2.830   4.433   5.281  0.0112 -1.2358  0.1423
 1526WAT     H2 4790   2.721   4.526   5.329  1.6495  0.5900  0.4570
 1527WAT      O 4791   3.023   4.389   2.864 -0.0511  0.3825  0.9367
 1527WAT     H1 4792   2.942   4.427   2.830 -0.0994 -0.0671  0.5383
 1527WAT     H2 4793   3.073   4.364   2.787  1.1352  1.9696  1.1394
 1528WAT      O 4794   2.343   4.746   3.523 -0.2171  0.0621 -0.5639
 1528WAT     H1 4795   2.296   4.737   3.606  1.6763  0.0408  0.5653
 1528WAT     H2 4796   2.318   4.832   3.490 -3.0316 -0.9457 -1.3721
 1529WAT      O 4797   0.244   1.294   0.137  0.0400  0.1591 -0.5205
 1529WAT     H1 4798   0.333   1.304   0.172 -0.6249 -1.3475  1.8172
 1529WAT     H2 4799   0.246   1.212   0.089 -0.2535 -0.2611  0.1735
 1530WAT      O 4800   1.316   3.927   3.433  0.2831  0.2211  0.1733
 1530WAT     H1 4801   1.394   3.956   3.480  0.9399  0.2772 -0.9187
 1530WAT     H2 4802   1.322   3.831   3.434  0.4643  0.2285 -0.0568
 1531WAT      O 4803   2.341   4.989   0.934 -0.4993 -0.3395 -0.6211
 1531WAT     H1 4804   2.246   4.989   0.935 -0.5497 -2.4160  0.7296
 1531WAT     H2 4805   2.366   5.036   1.014 -0.4266 -0.8028 -0.3677
 1532WAT      O 4806   1.874   0.144   3.191 -0.8489 -0.0643 -0.0645
 1532WAT     H1 4807   1.895   0.053   3.174  0.9155  0.0460  1.2775
 1532WAT     H2 4808   1.828   0.143   3.275 -0.8829  0.2896 -0.0747
 1533WAT      O 4809   3.615   2.050   4.032 -0.3307 -0.4895 -0.5774
 1533WAT     H1 4810   3.589   2.115   4.097 -0.5735 -0.3979 -0.7661
 1533WAT     H2 4811   3.704   2.024   4.058 -0.4310 -0.4623 -0.2024
 1534WAT      O 4812   3.181   5.418   1.238 -0.4587  0.0137 -0.9387
 1534WAT     H1 4813   3.269   5.454   1.227 -0.8005  1.4354  0.5883
 1534WAT     H2 4814   3.194   5.336   1.287  0.1477 -0.9443 -2.6132
 1535WAT      O 4815   2.595   2.969   1.314  0.2498 -0.1650  0.2385
 1535WAT     H1 4816   2.557   2.985   1.400 -0.7704 -0.9154 -0.0495
 1535WAT     H2 4817   2.541   3.020   1.254 -0.4869 -1.4161 -0.2024
 1536WAT      O 4818   3.423   5.084   2.094  0.1306  0.2929  0.0192
 1536WAT     H1 4819   3.458   5.000   2.062 -0.6711  0.3756 -1.1528
 1536WAT     H2 4820   3.340   5.094   2.048  1.4410  3.0003 -2.0353
 1537WAT      O 4821   2.638   1.334   3.539 -0.1082 -0.2113  0.6491
 1537WAT     H1 4822   2.666   1.425   3.554 -1.3585  0.0435  1.5442
 1537WAT     H2 4823   2.666   1.316   3.449 -0.0916  1.1510  0.3505
 1538WAT      O 4824   3.591   4.617   2.596  0.2053  0.1110  0.8509
 1538WAT     H1 4825   3.586   4.541   2.538 -0.0414  0.2278  0.7137
 1538WAT     H2 4826   3.554   4.688   2.544 -1.9791 -0.2039  1.8585
 1539WAT      O 4827   3.354   5.137   4.394 -0.0548 -0.3272  0.3970
 1539WAT     H1 4828   3.429   5.151   4.452 -0.1321 -2.1217  0.9982
 1539WAT     H2 4829   3.305   5.066   4.435 -2.0409  0.7292 -0.0662
 1540WAT      O 4830   0.989   2.689   2.686  0.0069  0.0149  0.3617
 1540WAT     H1 4831   0.963   2.747   2.757  0.3768 -0.2958  0.7524
 1540WAT     H2 4832   1.073   2.724   2.656 -1.5357  2.0603 -2.0332
 1541WAT      O 4833   4.274   4.669   4.908  0.3405  0.2411  0.1314
 1541WAT     H1 4834   4.269   4.623   4.824  0.1711  0.2439  0.1405
 1541WAT     H2 4835   4.346   4.625   4.955 -1.0460 -1.3022  0.9085
 1542WAT      O 4836   4.730   1.470   1.846  0.6494 -0.0552 -0.0594
 1542WAT     H1 4837   4.780   1.427   1.916  0.6136  0.5671  0.3541
 1542WAT     H2 4838   4.690   1.397   1.798  0.9791 -0.5083  0.3353
 1543WAT      O 4839   2.348   4.302   4.522  0.4721  0.0955  0.8484
 1543WAT     H1 4840   2.265   4.304   4.570  0.1980 -1.5981  0.5295
 1543WAT     H2 4841   2.415   4.319   4.589  0.0088 -0.8155  1.5710
 1544WAT      O 4842   2.480   1.234   5.117  0.2900  0.0418  0.4765
 1544WAT     H1 4843   2.397   1.281   5.109 -0.5383 -1.4737 -0.1935
 1544WAT     H2 4844   2.505   1.213   5.027  1.3603  0.3765  0.6798
 1545WAT      O 4845   3.995   0.795   3.562 -0.2409  0.3277 -0.0816
 1545WAT     H1 4846   3.966   0.849   3.636 -1.1422 -0.9629  0.5273
 1545WAT     H2 4847   3.976   0.705   3.588  1.6216 -0.3529 -0.9049
 1546WAT      O 4848   2.063   5.219   5.174  0.2951 -0.3145  0.4630
 1546WAT     H1 4849   1.976   5.191   5.146  0.1635  2.1183 -1.8863
 1546WAT     H2 4850   2.123   5.157   5.132 -0.1872 -0.1053 -0.5575
 1547WAT      O 4851   3.190   3.130   1.580  0.1655 -0.8421  0.2097
 1547WAT     H1 4852   3.226   3.112   1.493 -2.5626  1.0360 -1.4256
 1547WAT     H2 4853   3.208   3.222   1.595  0.1870 -1.0369  1.4764
 1548WAT      O 4854   2.558   1.891   1.984  0.2294 -0.2085 -0.1949
 1548WAT     H1 4855   2.593   1.928   1.903 -0.6416  0.1069 -0.4376
 1548WAT     H2 4856   2.609   1.933   2.053  0.6509 -0.1196 -0.5529
 1549WAT      O 4857   2.958   0.837   0.134 -0.3500  0.6911 -0.5597
 1549WAT     H1 4858   3.029   0.821   0.072  0.3834  1.0768  0.1691
 1549WAT     H2 4859   2.878   0.815   0.085  0.3714 -2.7415 -0.4567
 1550WAT      O 4860   0.163   3.178   4.796  0.2954  0.9997  0.4600
 1550WAT     H1 4861   0.155   3.244   4.727  0.8974  0.0378 -0.5837
 1550WAT     H2 4862   0.246   3.199   4.840  0.9480  0.4349 -0.4614
 1551WAT      O 4863   2.271   5.632   3.313 -0.3656  0.3020  0.3323
 1551WAT     H1 4864   2.366   5.625   3.315 -0.3198  0.4023 -0.7808
 1551WAT     H2 4865   2.253   5.722   3.342 -0.0073  0.7991 -0.8827
 1552WAT      O 4866   2.901   5.444   3.790 -0.5399  0.1021 -0.0741
 1552WAT     H1 4867   2.922   5.397   3.709  0.1391  0.2250  0.0241
 1552WAT     H2 4868   2.978   5.499   3.806 -0.1238 -0.8593  1.3353
 1553WAT      O 4869   2.536   0.062   2.558 -0.2576 -0.0038  0.1359
 1553WAT     H1 4870   2.612   0.109   2.522 -1.0465  0.8053 -0.5246
 1553WAT     H2 4871   2.461   0.103   2.515 -1.0180 -1.4728  0.0165
 1554WAT      O 4872   4.563   4.402   1.326  0.0003 -0.1967 -0.2976
 1554WAT     H1 4873   4.506   4.328   1.347  1.0646 -1.2159 -0.8619
 1554WAT     H2 4874   4.554   4.462   1.400 -0.3287 -1.2330  0.5190
 1555WAT      O 4875   2.262   2.818   3.058  0.7460  0.0920  0.3293
 1555WAT     H1 4876   2.309   2.894   3.092  0.5854 -0.4077  1.7526
 1555WAT     H2 4877   2.183   2.854   3.018  0.1962  0.6580  1.8240
 1556WAT      O 4878   4.168   5.013   3.065  0.0044 -0.2774 -0.3964
 1556WAT     H1 4879   4.218   4.969   2.997  1.1015  1.1701 -0.5646
 1556WAT     H2 4880   4.158   5.103   3.033 -1.4613 -0.1544  0.3094
 1557WAT      O 4881   1.526   1.800   0.195 -0.3446 -0.0177  0.5621
 1557WAT     H1 4882   1.462   1.729   0.198 -1.3696  0.7691 -1.1423
 1557WAT     H2 4883   1.589   1.773   0.129  0.7292 -0.4569  1.7233
 1558WAT      O 4884   4.796   4.094   4.095  0.2818 -0.5947  0.3629
 1558WAT     H1 4885   4.825   4.127   4.009  0.3482 -1.6821 -0.0449
 1558WAT     H2 4886   4.717   4.145   4.114 -0.1247 -0.8088 -0.6712
 1559WAT      O 4887   0.373   4.210   3.105  0.5753  0.5605  0.0554
 1559WAT     H1 4888   0.382   4.230   3.198 -0.0344  1.3380 -0.0381
 1559WAT     H2 4889   0.288   4.165   3.098  2.1152 -2.6172  0.3241
 1560WAT      O 4890   2.673   3.317   2.645  0.4893 -0.0968  0.3133
 1560WAT     H1 4891   2.719   3.236   2.668 -0.0710 -0.0956  1.5141
 1560WAT     H2 4892   2.634   3.346   2.727 -1.7947 -0.1853 -0.6642
 1561WAT      O 4893   1.776   4.252   4.834  0.3293 -0.2530 -0.3125
 1561WAT     H1 4894   1.796   4.201   4.756 -1.4523 -0.1442 -0.8887
 1561WAT     H2 4895   1.832   4.329   4.827 -0.3654  0.1589 -1.9478
 1562WAT      O 4896   3.232   4.883   2.842  0.3998  0.0182 -0.8943
 1562WAT     H1 4897   3.195   4.938   2.911  1.8658  0.8467 -0.7237
 1562WAT     H2 4898   3.158   4.831   2.811 -0.8054  1.3190 -0.3243
 1563WAT      O 4899   3.334   3.546   0.382 -0.5469 -0.5456 -0.3613
 1563WAT     H1 4900   3.260   3.492   0.410 -1.0523  0.4525  0.2887
 1563WAT     H2 4901   3.337   3.617   0.446  0.4245 -0.0898 -0.8979
 1564WAT      O 4902   0.079   4.100   3.447  0.2529 -0.6694  0.3204
 1564WAT     H1 4903   0.088   4.086   3.541 -1.4977 -0.1706  0.6048
 1564WAT     H2 4904   0.133   4.031   3.407 -0.2508 -1.9200  1.6986
 1565WAT      O 4905   3.566   0.354   2.307 -0.1023 -0.1705  0.3848
 1565WAT     H1 4906   3.525   0.439   2.323 -1.1030 -0.4901 -0.3611
 1565WAT     H2 4907   3.518   0.319   2.232  0.7206 -1.1201  0.2875
 1566WAT      O 4908   3.996   4.968   1.997  0.3661  0.2754  0.4520
 1566WAT     H1 4909   4.073   5.023   1.985  0.5382  0.1164  0.8054
 1566WAT     H2 4910   3.926   5.013   1.949  0.7815  0.1943 -0.2310
 1567WAT      O 4911   2.233   1.847   0.525 -0.0686  0.1352  0.1386
 1567WAT     H1 4912   2.216   1.937   0.496 -1.7083 -0.7125 -1.7150
 1567WAT     H2 4913   2.160   1.827   0.584 -2.1853 -1.2966 -2.7225
 1568WAT      O 4914   1.670   3.300   2.474  0.1017  0.2619 -0.5056
 1568WAT     H1 4915   1.621   3.309   2.556  2.5174 -0.0320  1.0807
 1568WAT     H2 4916   1.663   3.207   2.452 -0.8751  0.4131 -0.8756
 1569WAT      O 4917   4.080   0.289   5.174  0.8465  0.7438 -0.3980
 1569WAT     H1 4918   4.115   0.218   5.121  0.0172  0.8057 -1.0566
 1569WAT     H2 4919   3.994   0.258   5.202  0.3503  1.5823 -0.9310
 1570WAT      O 4920   3.065   5.338   2.820  0.6636  0.0967 -0.8444
 1570WAT     H1 4921   3.080   5.360   2.912 -2.3920 -0.7589 -0.0205
 1570WAT     H2 4922   3.029   5.417   2.781  0.9627  0.1418 -1.0312
 1571WAT      O 4923   1.820   0.841   0.654  0.1643  0.5435  0.1685
 1571WAT     H1 4924   1.732   0.816   0.682 -0.7898  2.5531 -0.8001
 1571WAT     H2 4925   1.844   0.776   0.588 -0.1665 -0.5770  1.1264
 1572WAT      O 4926   0.066   3.177   4.320 -0.4555  0.0266 -0.3385
 1572WAT     H1 4927  -0.005   3.241   4.325  0.4319  1.1581 -1.3668
 1572WAT     H2 4928   0.132   3.219   4.264  0.9103 -1.0924  0.3521
 1573WAT      O 4929   2.723   1.596   3.584  0.2200 -0.2698  0.4274
 1573WAT     H1 4930   2.716   1.644   3.666 -0.0782  1.1508 -0.3844
 1573WAT     H2 4931   2.795   1.640   3.537  1.5329 -2.1342  0.5947
 1574WAT      O 4932   3.447   4.386   5.787  0.9779 -0.3816 -0.1394
 1574WAT     H1 4933   3.491   4.415   5.707  3.0596 -3.2979 -0.2231
 1574WAT     H2 4934   3.407   4.465   5.823  0.2013  1.1181 -3.8357
 1575WAT      O 4935   4.154   4.353   3.168  0.6305  0.2464 -0.2145
 1575WAT     H1 4936   4.208   4.429   3.188  0.1417  0.2852  1.0232
 1575WAT     H2 4937   4.116   4.373   3.082  1.1172  1.0412 -0.2511
 1576WAT      O 4938   1.698   4.850   2.550  0.3997 -0.4343  0.1641
 1576WAT     H1 4939   1.625   4.828   2.608  0.2183 -1.5321 -0.4634
 1576WAT     H2 4940   1.770   4.872   2.610 -0.8267  2.1672  0.8139
 1577WAT      O 4941   0.040   3.132   3.225  0.3764 -0.1261 -0.1957
 1577WAT     H1 4942  -0.016   3.079   3.168 -0.1149  0.9561 -0.7328
 1577WAT     H2 4943   0.048   3.080   3.305 -1.5080 -0.2613 -0.0437
 1578WAT      O 4944   3.071   4.978   0.478 -0.0201 -0.2711  0.4727
 1578WAT     H1 4945   2.979   5.005   0.484  0.7241  2.5669  0.5876
 1578WAT     H2 4946   3.087   4.929   0.558 -1.4964 -1.0808  0.3036
 1579WAT      O 4947   2.512   3.935   3.543  0.1915  0.5732  0.3343
 1579WAT     H1 4948   2.567   3.943   3.621  0.0785 -0.4932  0.5328
 1579WAT     H2 4949   2.468   4.020   3.536 -1.0920  0.1376  2.4093
 1580WAT      O 4950   1.480   4.749   3.392  0.0659  0.1840  0.1014
 1580WAT     H1 4951   1.522   4.758   3.477  2.9036  0.5848 -1.2332
 1580WAT     H2 4952   1.502   4.661   3.363 -1.7229 -0.3178  0.1460
 1581WAT      O 4953   1.673   4.250   1.048  0.3241 -0.5041  0.5701
 1581WAT     H1 4954   1.669   4.155   1.058 -0.0867 -0.4397  1.0529
 1581WAT     H2 4955   1.595   4.272   0.996  1.5620 -0.6542 -1.4736
 1582WAT      O 4956   1.673   3.843   5.184 -0.0392  0.1302 -0.3694
 1582WAT     H1 4957   1.595   3.796   5.213  0.8940 -0.1009  2.0029
 1582WAT     H2 4958   1.703   3.889   5.262  1.1377  1.7661 -1.7210
 1583WAT      O 4959   3.940   4.053   3.439 -0.3136 -0.1564  0.5980
 1583WAT     H1 4960   3.935   4.124   3.375  1.4752  0.5767  1.2150
 1583WAT     H2 4961   3.851   4.017   3.442 -1.0016  1.3514 -0.5206
 1584WAT      O 4962   2.157   0.935   0.415 -0.4255  0.1063  0.4719
 1584WAT     H1 4963   2.145   0.958   0.507  3.4799  0.6082  0.9854
 1584WAT     H2 4964   2.232   0.876   0.414 -0.1114  0.4024 -2.4506
 1585WAT      O 4965   2.703   3.841   4.374  0.1639 -0.1373 -0.7887
 1585WAT     H1 4966   2.627   3.898   4.386 -0.1125 -0.4385 -1.0952
 1585WAT     H2 4967   2.758   3.888   4.311 -0.9506 -1.0456 -2.5228
 1586WAT      O 4968   2.699   4.309   1.048 -0.2254 -0.0448 -0.2034
 1586WAT     H1 4969   2.746   4.316   1.131  0.3397  1.4288 -0.6285
 1586WAT     H2 4970   2.739   4.374   0.991 -1.1216 -0.4900 -1.4017
 1587WAT      O 4971   1.120   2.533   5.013  0.3527  0.3325  0.3814
 1587WAT     H1 4972   1.126   2.448   5.056 -2.4560 -0.4392 -0.5014
 1587WAT     H2 4973   1.026   2.547   5.003  0.7791  1.6040 -3.2150
 1588WAT      O 4974   2.655   0.289   4.953  0.1175  0.4849 -0.0009
 1588WAT     H1 4975   2.743   0.328   4.953  0.0018  0.7588 -0.5557
 1588WAT     H2 4976   2.664   0.212   5.009  0.6909  0.5641  0.0308
 1589WAT      O 4977   2.650   2.388   5.197  0.3541  0.3322  0.2859
 1589WAT     H1 4978   2.645   2.299   5.161 -1.5265  0.6089 -0.2229
 1589WAT     H2 4979   2.564   2.426   5.180  0.4024  1.5425  2.3736
 1590WAT      O 4980   3.381   0.139   0.797  0.0463 -0.5294 -0.0347
 1590WAT     H1 4981   3.377   0.045   0.815  1.3898 -0.5825  0.0801
 1590WAT     H2 4982   3.450   0.171   0.856  0.7302  0.2393 -1.2128
 1591WAT      O 4983   2.877   4.399   3.973 -0.8914 -0.0989  0.0013
 1591WAT     H1 4984   2.821   4.427   3.900 -1.0394 -1.5794 -0.5002
 1591WAT     H2 4985   2.884   4.475   4.029 -0.6184  1.1622 -1.6706
 1592WAT      O 4986   3.990   1.792   4.546  0.3441  0.4430  0.5192
 1592WAT     H1 4987   3.905   1.749   4.537  0.7053 -0.1008 -0.6746
 1592WAT     H2 4988   4.020   1.767   4.633  0.5650 -1.8875 -0.1331
 1593WAT      O 4989   1.718   4.993   4.578  0.0193 -0.4751 -0.4378
 1593WAT     H1 4990   1.797   4.939   4.575  0.1516 -0.2541 -1.0064
 1593WAT     H2 4991   1.675   4.967   4.659  1.2610  0.2381  0.4883
 1594WAT      O 4992   4.360   4.112   5.399 -0.0073  0.2868  0.2707
 1594WAT     H1 4993   4.273   4.141   5.425  0.2199  0.0842  1.3115
 1594WAT     H2 4994   4.345   4.057   5.322 -0.4639  2.8415 -1.6042
 1595WAT      O 4995   3.903   4.072   4.016 -0.3404  0.1649 -0.0430
 1595WAT     H1 4996   3.933   4.000   3.960 -0.0631  0.7319 -0.6234
 1595WAT     H2 4997   3.911   4.150   3.962 -1.2618  0.5546  0.3666
 1596WAT      O 4998   2.441   4.971   1.925  0.0095 -0.2438  0.1201
 1596WAT     H1 4999   2.486   4.890   1.901  0.6257 -0.2109  1.1176
 1596WAT     H2 5000   2.384   4.945   1.998 -0.1563  0.1185  0.1178
 1597WAT      O 5001   0.874   3.597   5.776  0.6281  0.6649  0.2851
 1597WAT     H1 5002   0.963   3.566   5.791 -0.0847 -0.4162  2.8698
 1597WAT     H2 5003   0.879   3.692   5.793  1.7671  1.1656 -2.4132
 1598WAT      O 5004   0.472   3.590   4.090 -0.3362  0.3709  0.1137
 1598WAT     H1 5005   0.557   3.545   4.087 -0.5763 -0.2045  1.3763
 1598WAT     H2 5006   0.491   3.676   4.126 -0.5117 -0.4009  2.1607
 1599WAT      O 5007   0.287   2.679   0.119  0.1175  0.2247 -0.2142
 1599WAT     H1 5008   0.252   2.767   0.107 -0.1818  0.2729  0.9373
 1599WAT     H2 5009   0.210   2.624   0.132  0.3471 -0.0672 -0.0792
 1600WAT      O 5010   3.026   5.583   2.656 -0.0324 -0.0855 -0.3046
 1600WAT     H1 5011   2.986   5.601   2.571  1.0714  1.6966 -0.5008
 1600WAT     H2 5012   3.115   5.617   2.649  0.9533 -2.2364  0.7349
 1601WAT      O 5013   2.307   1.981   3.084 -0.5674 -0.1934 -0.3505
 1601WAT     H1 5014   2.288   2.060   3.133 -1.7810 -1.1658  0.8191
 1601WAT     H2 5015   2.348   1.922   3.148  2.9830  0.4043 -1.8379
 1602WAT      O 5016   2.730   1.454   2.490  0.4874  0.0167 -0.6818
 1602WAT     H1 5017   2.679   1.385   2.447 -0.3620  1.2660 -1.7544
 1602WAT     H2 5018   2.810   1.460   2.439  0.4823 -0.0435 -0.6972
 1603WAT      O 5019   0.584   2.432   5.214 -0.4763  0.1031 -0.0114
 1603WAT     H1 5020   0.553   2.493   5.280 -0.2489  0.1173  0.0820
 1603WAT     H2 5021   0.528   2.449   5.138 -0.0901  0.7708 -0.1527
 1604WAT      O 5022   1.659   1.186   2.541 -0.1194 -0.2537  0.4735
 1604WAT     H1 5023   1.736   1.171   2.486 -0.0839 -0.3528  0.5482
 1604WAT     H2 5024   1.587   1.196   2.480 -0.1798 -0.9573  0.4233
 1605WAT      O 5025   0.136   2.786   4.933  0.0464  0.3752  0.1560
 1605WAT     H1 5026   0.127   2.701   4.888  1.4980 -0.3090  1.0843
 1605WAT     H2 5027   0.132   2.850   4.862  0.5487 -0.5749 -0.7683
 1606WAT      O 5028   3.918   2.253   4.627 -0.0239  0.1604  0.0440
 1606WAT     H1 5029   3.971   2.193   4.679  0.8979  1.0317  0.1518
 1606WAT     H2 5030   3.979   2.288   4.562 -0.7226  0.4285 -0.4759
 1607WAT      O 5031   2.473   5.092   0.086  0.6939 -0.2838 -0.3312
 1607WAT     H1 5032   2.501   5.182   0.103 -1.0962  0.1554  0.6119
 1607WAT     H2 5033   2.384   5.102   0.051  0.7647 -1.6605 -0.9488
 1608WAT      O 5034   0.171   1.315   1.171 -0.1897  0.5759  0.2787
 1608WAT     H1 5035   0.138   1.358   1.250 -0.6300  1.6928 -0.4911
 1608WAT     H2 5036   0.161   1.222   1.189 -0.7055  0.8199  1.3628
 1609WAT      O 5037   2.890   2.616   2.079  0.2192 -0.1192  0.1699
 1609WAT     H1 5038   2.932   2.637   1.996  0.6346  0.5028  0.5307
 1609WAT     H2 5039   2.845   2.533   2.062  0.8008 -0.3124 -0.4918
 1610WAT      O 5040   1.506   2.258   3.567 -0.1471  0.4650  0.3367
 1610WAT     H1 5041   1.466   2.343   3.585  0.0530  0.9986 -1.5116
 1610WAT     H2 5042   1.577   2.251   3.631 -0.9553  1.1169  1.3292
 1611WAT      O 5043   2.802   1.530   2.140  0.3325 -0.0580 -0.4228
 1611WAT     H1 5044   2.850   1.515   2.059 -0.4029 -0.2602 -0.8300
 1611WAT     H2 5045   2.868   1.522   2.209  1.0550  0.6226 -1.0317
 1612WAT      O 5046   0.518   2.187   2.099  0.0052 -0.0821 -0.3153
 1612WAT     H1 5047   0.496   2.261   2.156 -1.5676  0.6475 -1.7902
 1612WAT     H2 5048   0.581   2.224   2.036  1.8472 -0.9206  0.9406
 1613WAT      O 5049   1.900   2.280   3.220  0.5518 -0.2457 -0.1604
 1613WAT     H1 5050   1.857   2.200   3.251  2.0015 -1.3529 -0.8537
 1613WAT     H2 5051   1.867   2.349   3.277 -0.5727 -1.3738  0.6085
 1614WAT      O 5052   3.777   0.476   0.152  0.0124  0.2072  0.1215
 1614WAT     H1 5053   3.871   0.496   0.153  0.0448  0.0950 -0.3285
 1614WAT     H2 5054   3.769   0.397   0.205  0.4867 -1.0677 -1.6347
 1615WAT      O 5055   3.588   1.435   1.209 -0.4246 -0.1053  0.3619
 1615WAT     H1 5056   3.542   1.409   1.288  1.1177  0.8396  1.6276
 1615WAT     H2 5057   3.680   1.433   1.233  0.0448  0.9326 -1.1831
 1616WAT      O 5058   3.622   0.433   0.474  0.6817 -0.1587  0.2388
 1616WAT     H1 5059   3.624   0.361   0.411  0.7104 -1.2786  1.4862
 1616WAT     H2 5060   3.530   0.453   0.486  0.5825 -1.0718  1.0735
 1617WAT      O 5061   4.190   5.260   5.270 -0.2343  0.5437 -0.5007
 1617WAT     H1 5062   4.135   5.183   5.254  0.6261 -0.3891  0.8025
 1617WAT     H2 5063   4.250   5.262   5.196  1.1149 -1.3475  0.4468
 1618WAT      O 5064   3.524   5.037   1.644  0.2495 -0.2423 -0.8168
 1618WAT     H1 5065   3.565   5.106   1.592 -0.4538  1.5684  0.9010
 1618WAT     H2 5066   3.594   5.004   1.699  0.1262  0.7323 -0.0383
 1619WAT      O 5067   1.696   4.423   2.253  0.0993 -0.2783  0.0879
 1619WAT     H1 5068   1.664   4.419   2.162 -0.2939  0.1356  0.2029
 1619WAT     H2 5069   1.628   4.472   2.299  0.4890 -0.1520  0.5265
 1620WAT      O 5070   4.359   2.738   4.551  0.2928 -0.4469  0.2217
 1620WAT     H1 5071   4.444   2.696   4.540 -0.2039 -1.6035  0.7115
 1620WAT     H2 5072   4.370   2.795   4.627  0.2833 -1.5756  1.1014
 1621WAT      O 5073   0.179   2.500   2.873  0.1529  0.1240 -0.3037
 1621WAT     H1 5074   0.187   2.521   2.780 -0.3939 -2.4235 -1.0106
 1621WAT     H2 5075   0.257   2.537   2.913 -0.5289  2.9878 -1.3645
 1622WAT      O 5076   2.183   1.533   0.156 -0.1540 -0.0099 -0.3216
 1622WAT     H1 5077   2.113   1.543   0.220 -0.0789  1.3081 -0.4148
 1622WAT     H2 5078   2.258   1.578   0.194  0.8347 -1.8104 -0.0054
 1623WAT      O 5079   3.066   2.347   2.671  0.3301  0.1213  0.3386
 1623WAT     H1 5080   2.986   2.294   2.664  0.5223  0.0126 -1.4792
 1623WAT     H2 5081   3.119   2.301   2.735 -1.4289  0.7160  2.3329
 1624WAT      O 5082   2.423   3.276   5.496  0.0517  0.0944 -0.4263
 1624WAT     H1 5083   2.351   3.310   5.443  1.6569  3.0345 -0.9461
 1624WAT     H2 5084   2.502   3.309   5.454  1.5252  0.3820  2.2866
 1625WAT      O 5085   3.276   1.679   0.465 -0.1834 -0.1746 -0.2285
 1625WAT     H1 5086   3.280   1.767   0.503  0.3867  0.0384 -0.7743
 1625WAT     H2 5087   3.228   1.691   0.383  0.3509 -0.2695 -0.5614
 1626WAT      O 5088   2.997   1.488   1.945 -0.1380  0.4945  0.4370
 1626WAT     H1 5089   3.015   1.517   1.856 -0.2981  0.0747  0.2652
 1626WAT     H2 5090   3.040   1.403   1.952 -0.0260  0.5795  0.7989
 1627WAT      O 5091   4.289   2.211   5.553  0.2016  0.2335  0.7287
 1627WAT     H1 5092   4.374   2.230   5.513 -0.0170  1.2989  0.7368
 1627WAT     H2 5093   4.302   2.227   5.646 -0.3264  1.6809  0.5794
 1628WAT      O 5094   4.249   4.024   0.721 -0.2996 -0.3938  0.0510
 1628WAT     H1 5095   4.279   3.950   0.667  0.6983  0.5503 -0.7400
 1628WAT     H2 5096   4.330   4.062   0.756 -0.8831 -0.3877  1.4122
 1629WAT      O 5097   1.185   2.281   5.212 -0.5002 -0.0720  0.3635
 1629WAT     H1 5098   1.237   2.201   5.216 -1.2795 -0.5950  0.4347
 1629WAT     H2 5099   1.097   2.251   5.187 -0.6035  0.8608 -0.4570
 1630WAT      O 5100   2.589   0.759   0.539  0.4393 -0.3604 -0.0676
 1630WAT     H1 5101   2.604   0.848   0.572 -2.9323 -0.4035  2.0402
 1630WAT     H2 5102   2.614   0.702   0.612 -1.1197 -0.8483  0.1251
 1631WAT      O 5103   1.685   1.324   4.976 -0.0521 -0.6023  0.0827
 1631WAT     H1 5104   1.690   1.380   5.053  0.7915  0.5343 -0.7658
 1631WAT     H2 5105   1.600   1.346   4.936 -0.0721 -0.5054  0.1775
 1632WAT      O 5106   2.902   4.208   3.118 -0.2718  0.2416  0.5754
 1632WAT     H1 5107   2.888   4.118   3.148  2.1684 -0.3782  0.1000
 1632WAT     H2 5108   2.972   4.201   3.053 -2.5091  2.0500 -2.2868
 1633WAT      O 5109   3.477   5.345   2.081  0.0957  0.6806 -0.1846
 1633WAT     H1 5110   3.542   5.353   2.151  2.5322 -0.6424 -2.1490
 1633WAT     H2 5111   3.437   5.259   2.095  0.1973  0.6489 -0.0906
 1634WAT      O 5112   3.757   4.490   2.835 -0.3968  0.7132  0.0443
 1634WAT     H1 5113   3.663   4.503   2.846 -1.4234 -3.3090 -1.9913
 1634WAT     H2 5114   3.779   4.541   2.756 -0.6130  2.1865  0.8862
 1635WAT      O 5115   3.898   0.041   2.901 -0.2492 -0.6033  0.1641
 1635WAT     H1 5116   3.937   0.072   2.820  1.0448 -0.7734  0.6935
 1635WAT     H2 5117   3.839  -0.030   2.874  0.5562 -1.0068 -0.5774
 1636WAT      O 5118   2.749   0.552   3.832  0.0726 -0.5306  0.0361
 1636WAT     H1 5119   2.809   0.559   3.758 -1.1368 -0.6835 -0.9911
 1636WAT     H2 5120   2.748   0.639   3.870  1.3528 -0.6580  0.4311
 1637WAT      O 5121   3.342   4.087   0.065 -0.0598  1.0567  0.1021
 1637WAT     H1 5122   3.249   4.066   0.058  0.1227  0.6577 -1.3971
 1637WAT     H2 5123   3.360   4.143  -0.011  1.4286 -0.8415 -1.0448
 1638WAT      O 5124   3.181   1.503   4.937 -0.0996  0.5148 -0.1218
 1638WAT     H1 5125   3.094   1.531   4.966 -0.2925 -0.3594  0.1740
 1638WAT     H2 5126   3.208   1.570   4.875 -0.8019  1.0248  0.1086
 1639WAT      O 5127   4.177   5.249   3.327  0.7865 -0.2881  0.2395
 1639WAT     H1 5128   4.094   5.256   3.373  0.9288 -1.0274  0.6377
 1639WAT     H2 5129   4.199   5.338   3.301 -1.2403 -0.3349 -1.9094
 1640WAT      O 5130   3.581   4.827   1.310  0.6841  0.2180  1.0606
 1640WAT     H1 5131   3.564   4.760   1.375 -2.2617 -0.4802 -0.2513
 1640WAT     H2 5132   3.649   4.790   1.254  0.6698 -0.6961  1.6260
 1641WAT      O 5133   2.139   3.839   3.905  0.2172 -0.4483  0.1621
 1641WAT     H1 5134   2.232   3.844   3.881 -0.2402 -0.2101 -1.6599
 1641WAT     H2 5135   2.093   3.882   3.833 -1.2323  0.8219  1.7726
 1642WAT      O 5136   2.404   3.371   1.022 -0.0679 -0.1074 -0.2083
 1642WAT     H1 5137   2.380   3.461   1.045 -0.7238 -0.2381 -0.3567
 1642WAT     H2 5138   2.399   3.370   0.926  1.5761  0.1428 -0.3175
 1643WAT      O 5139   3.080   5.050   3.060 -0.2098 -0.6024  0.2477
 1643WAT     H1 5140   3.104   5.041   3.153  0.4271  0.4160  0.2020
 1643WAT     H2 5141   3.037   5.136   3.055 -0.8909 -0.9655 -0.2784
 1644WAT      O 5142   2.862   4.022   1.046 -0.8380 -0.0505  0.3781
 1644WAT     H1 5143   2.830   4.036   1.135 -1.2926 -0.4953  0.2863
 1644WAT     H2 5144   2.911   4.102   1.026 -0.1451 -0.2273  1.2713
 1645WAT      O 5145   4.704   3.119   1.177 -0.6047  0.4834 -0.4568
 1645WAT     H1 5146   4.689   3.171   1.098 -0.7729  0.1963 -0.6153
 1645WAT     H2 5147   4.741   3.037   1.145  3.8547  2.0528  0.0421
 1646WAT      O 5148   0.687   3.908   0.448  0.3126 -0.0794  0.3141
 1646WAT     H1 5149   0.607   3.960   0.441  0.1019 -0.4641 -0.2177
 1646WAT     H2 5150   0.714   3.918   0.539 -0.2993  0.1168  0.4804
 1647WAT      O 5151   4.521   1.857   1.777 -0.3682  0.3500  0.0427
 1647WAT     H1 5152   4.476   1.791   1.831 -0.4110 -0.2972 -0.7616
 1647WAT     H2 5153   4.564   1.806   1.709  1.9854  0.9000  1.0146
 1648WAT      O 5154   1.957   4.764   4.868 -0.4258 -0.2988  0.0576
 1648WAT     H1 5155   1.952   4.672   4.839  1.8341 -0.6898  0.7397
 1648WAT     H2 5156   2.019   4.805   4.808 -1.2276  0.7534 -0.0831
 1649WAT      O 5157   2.030   3.839   3.639 -0.0369  0.1386  0.3774
 1649WAT     H1 5158   1.986   3.919   3.611  0.5211  0.5084  0.5253
 1649WAT     H2 5159   2.080   3.810   3.562  0.5242  0.4761  0.6041
 1650WAT      O 5160   2.373   3.149   2.854 -0.3446 -0.6183 -0.1077
 1650WAT     H1 5161   2.339   3.169   2.767  1.4153  1.9872 -0.3143
 1650WAT     H2 5162   2.425   3.070   2.843  0.7435  0.2854 -1.6937
 1651WAT      O 5163   1.602   2.307   0.156  0.0376 -0.3159  0.0349
 1651WAT     H1 5164   1.546   2.279   0.228 -0.9482 -1.2146 -1.0496
 1651WAT     H2 5165   1.683   2.256   0.167 -0.4184 -1.0476  0.0643
 1652WAT      O 5166   2.891   3.722   0.260  0.1110  0.1819 -0.1823
 1652WAT     H1 5167   2.945   3.739   0.183  1.3224  0.8161  0.7652
 1652WAT     H2 5168   2.801   3.727   0.228  0.5836  0.6336 -1.5127
 1653WAT      O 5169   2.988   3.752   5.810 -0.0201  0.2564  0.2318
 1653WAT     H1 5170   2.939   3.679   5.772 -0.4425 -1.7192  4.0087
 1653WAT     H2 5171   3.078   3.739   5.781 -0.3939 -0.7799 -0.5223
 1654WAT      O 5172   3.257   3.831   2.976  0.0259  0.0968  0.0144
 1654WAT     H1 5173   3.279   3.838   2.883 -0.3535 -4.8338 -0.7509
 1654WAT     H2 5174   3.340   3.807   3.018 -0.4327 -1.0848  0.2805
 1655WAT      O 5175   2.291   3.702   1.854 -0.0018 -0.4918 -0.4830
 1655WAT     H1 5176   2.222   3.666   1.799 -0.8452  0.9287 -0.4056
 1655WAT     H2 5177   2.278   3.660   1.939 -1.7140  0.7878 -0.0588
 1656WAT      O 5178   1.837   4.165   5.102  0.3052  0.3623  0.2689
 1656WAT     H1 5179   1.792   4.215   5.034 -0.3179  1.0177  1.1421
 1656WAT     H2 5180   1.840   4.075   5.068 -2.8601 -0.0232  0.6891
 1657WAT      O 5181   3.806   2.817   5.103 -0.2823 -0.1887  0.0188
 1657WAT     H1 5182   3.849   2.828   5.188  0.4549 -1.6152 -0.1343
 1657WAT     H2 5183   3.719   2.856   5.115  0.1255  0.4368  1.1360
 1658WAT      O 5184   2.624   0.877   2.103 -0.0377  0.6251  0.0814
 1658WAT     H1 5185   2.562   0.824   2.152 -1.1754  1.4482 -0.4150
 1658WAT     H2 5186   2.678   0.919   2.170  0.9250 -1.1429  0.4799
 1659WAT      O 5187   2.202   3.699   1.461 -0.0807  0.2220 -0.0406
 1659WAT     H1 5188   2.295   3.677   1.455 -0.5443 -1.8229 -0.3439
 1659WAT     H2 5189   2.171   3.700   1.371 -0.5507 -0.1073  0.1107
 1660WAT      O 5190   0.864   2.957   2.320 -1.0472  0.1830 -0.0877
 1660WAT     H1 5191   0.820   2.937   2.237  0.2359 -0.8391 -0.5547
 1660WAT     H2 5192   0.885   3.050   2.314 -0.5307  0.0183 -1.1544
 1661WAT      O 5193   1.924   5.276   3.361  0.2281 -0.6500 -0.1907
 1661WAT     H1 5194   2.001   5.329   3.341  1.0594 -1.3156  1.1307
 1661WAT     H2 5195   1.909   5.224   3.282 -1.6049  2.6072 -2.2083
 1662WAT      O 5196   2.930   3.349   5.031 -0.2226 -0.5611  0.3782
 1662WAT     H1 5197   2.857   3.326   5.088  0.7163 -0.1961  1.7575
 1662WAT     H2 5198   2.963   3.432   5.065  0.6711 -0.5837 -0.3825
 1663WAT      O 5199   4.197   2.772   5.328 -0.3030 -0.0102 -0.6003
 1663WAT     H1 5200   4.130   2.707   5.310 -1.5961  1.1606 -0.1728
 1663WAT     H2 5201   4.222   2.805   5.242  1.9178 -2.4733 -1.0321
 1664WAT      O 5202   1.861   0.764   1.195 -0.3022  0.0585 -0.7900
 1664WAT     H1 5203   1.871   0.747   1.101 -0.4207  3.4563 -1.5391
 1664WAT     H2 5204   1.855   0.859   1.201  1.2193  0.0586  2.8369
 1665WAT      O 5205   0.233   4.126   0.307 -0.0790  0.5902  0.7441
 1665WAT     H1 5206   0.150   4.081   0.297 -0.6493  1.7061  0.2341
 1665WAT     H2 5207   0.238   4.185   0.232  1.2677  0.4154  0.6636
 1666WAT      O 5208   3.801   1.243   4.905  0.0090 -0.0153 -0.1362
 1666WAT     H1 5209   3.897   1.241   4.909  0.1046  0.1045 -1.7150
 1666WAT     H2 5210   3.778   1.330   4.937  0.5628  0.6178 -1.3682
 1667WAT      O 5211   1.549   4.313   1.294 -0.0154  0.1045 -0.2914
 1667WAT     H1 5212   1.612   4.292   1.225  0.2254 -1.2931  0.3250
 1667WAT     H2 5213   1.592   4.381   1.346  2.2436 -2.6073  1.6829
 1668WAT      O 5214   1.712   1.729   0.731 -0.0693 -0.1810  0.3115
 1668WAT     H1 5215   1.651   1.721   0.803 -0.1489 -0.3184  0.2299
 1668WAT     H2 5216   1.666   1.780   0.665 -0.2757 -0.6880  0.0579
 1669WAT      O 5217   0.883   4.459   2.290 -0.1070  0.0289 -0.2928
 1669WAT     H1 5218   0.854   4.539   2.335  0.7796  0.1667  0.0527
 1669WAT     H2 5219   0.837   4.389   2.336 -2.2297  0.4269 -1.6918
 1670WAT      O 5220   3.698   3.705   1.997  0.6209 -0.0979 -0.0496
 1670WAT     H1 5221   3.696   3.619   2.038  0.3549  0.3155  0.8259
 1670WAT     H2 5222   3.792   3.725   1.988  0.6966 -0.9318 -1.2592
 1671WAT      O 5223   3.036   1.238   1.171  0.1688  0.3494  0.2786
 1671WAT     H1 5224   3.000   1.319   1.206  1.1971 -0.3944  3.5102
 1671WAT     H2 5225   3.116   1.265   1.125  0.2450  1.2520  0.9041
 1672WAT      O 5226   2.973   5.371   3.535  0.0338 -0.1287  0.2758
 1672WAT     H1 5227   3.033   5.390   3.462 -0.8490 -0.9929 -0.7065
 1672WAT     H2 5228   2.895   5.334   3.493 -0.5519 -0.5270  1.6569
 1673WAT      O 5229   0.931   2.534   5.467 -0.1222  0.2644 -0.2147
 1673WAT     H1 5230   0.991   2.533   5.542  0.1720  1.6704 -0.4073
 1673WAT     H2 5231   0.874   2.459   5.482 -0.0058  0.4541  1.3792
 1674WAT      O 5232   4.075   3.812   4.120 -0.2973 -0.5423  0.9442
 1674WAT     H1 5233   4.124   3.876   4.172  1.5250  0.0202 -1.3049
 1674WAT     H2 5234   4.130   3.797   4.043 -1.0943 -4.1604  0.9216
 1675WAT      O 5235   2.010   3.779   2.292  0.0232 -0.1305 -0.1883
 1675WAT     H1 5236   2.020   3.755   2.200  1.4969  0.4304 -0.1952
 1675WAT     H2 5237   1.929   3.830   2.295 -0.6023 -1.0413 -0.9785
 1676WAT      O 5238   1.105   3.780   0.298  0.5741  0.1101  0.2402
 1676WAT     H1 5239   1.104   3.871   0.328  0.9734 -0.1166  0.9405
 1676WAT     H2 5240   1.136   3.785   0.207 -0.5282  0.7836 -0.1277
 1677WAT      O 5241   2.355   5.175   0.457  0.8240 -0.1167  0.1325
 1677WAT     H1 5242   2.318   5.213   0.378 -0.5488  0.2180  0.8909
 1677WAT     H2 5243   2.291   5.197   0.526  2.4852  0.5564  1.5402
 1678WAT      O 5244   0.766   2.321   0.816 -0.0276 -0.1961  0.1402
 1678WAT     H1 5245   0.682   2.287   0.847  0.3867 -0.4637  1.0002
 1678WAT     H2 5246   0.754   2.416   0.813 -0.1491 -0.1831  0.9224
 1679WAT      O 5247   3.059   1.622   1.329  0.2635 -0.0080  0.4316
 1679WAT     H1 5248   2.986   1.568   1.299 -0.3057  0.2192  1.3892
 1679WAT     H2 5249   3.033   1.653   1.415  1.9395 -0.8063  1.2817
 1680WAT      O 5250   1.479   2.809   0.710  0.4762  0.1533 -0.7389
 1680WAT     H1 5251   1.396   2.857   0.706 -0.7954 -2.0144 -2.2555
 1680WAT     H2 5252   1.478   2.768   0.797  0.4168  0.8491 -0.4010
 1681WAT      O 5253   3.258   5.002   2.617  0.2208 -0.0818  0.3267
 1681WAT     H1 5254   3.173   5.046   2.616 -0.6505 -1.6544 -2.0356
 1681WAT     H2 5255   3.255   4.945   2.694 -1.8528 -1.8009 -0.9278
 1682WAT      O 5256   3.800   5.502   1.481  0.1665  0.0269 -0.0426
 1682WAT     H1 5257   3.738   5.563   1.519 -1.6413  0.4814 -3.3140
 1682WAT     H2 5258   3.885   5.545   1.492 -0.5002  1.0490  1.5090
 1683WAT      O 5259   1.925   4.087   1.343 -0.1145 -0.1446  0.7776
 1683WAT     H1 5260   1.840   4.096   1.300  0.3167  0.7996  0.0760
 1683WAT     H2 5261   1.915   4.135   1.425  0.4725  2.2267 -0.4495
 1684WAT      O 5262   2.113   0.762   0.637  0.0829 -0.2199  0.6055
 1684WAT     H1 5263   2.057   0.820   0.586  0.6749 -0.1134  0.0535
 1684WAT     H2 5264   2.159   0.821   0.697  1.6750  0.1193 -0.8535
 1685WAT      O 5265   2.932   0.022   1.777  0.3013  1.1576 -0.3853
 1685WAT     H1 5266   2.904   0.013   1.685 -0.3309 -0.4109 -0.0765
 1685WAT     H2 5267   2.851   0.038   1.825 -0.1635 -2.7384  0.4327
 1686WAT      O 5268   2.126   4.194   3.121 -0.0712 -0.3621  0.2683
 1686WAT     H1 5269   2.116   4.122   3.057 -0.3129 -0.1448  0.0570
 1686WAT     H2 5270   2.219   4.194   3.142  0.3990  0.8433 -1.6064
 1687WAT      O 5271   1.167   3.166   5.030 -0.0477 -0.1719  0.3171
 1687WAT     H1 5272   1.251   3.208   5.012 -0.7945  0.8732 -0.8768
 1687WAT     H2 5273   1.165   3.090   4.971  0.2734 -0.5136  0.7376
 1688WAT      O 5274   2.796   3.917   1.620 -0.3926  0.1550 -0.2823
 1688WAT     H1 5275   2.715   3.968   1.616  0.2643  1.1509 -1.7858
 1688WAT     H2 5276   2.823   3.922   1.712 -1.3876  0.8441 -0.0141
 1689WAT      O 5277   1.798   3.749   1.834 -0.1373 -0.4964 -0.3628
 1689WAT     H1 5278   1.854   3.782   1.763  0.6014  0.2220  0.5438
 1689WAT     H2 5279   1.739   3.686   1.790  0.5744 -0.3712 -1.5377
 1690WAT      O 5280   3.011   4.795   0.276  0.5592  0.1037 -0.4885
 1690WAT     H1 5281   3.046   4.848   0.348  1.0762  0.4406 -0.9847
 1690WAT     H2 5282   3.043   4.706   0.294 -2.6804 -0.7618  1.9722
 1691WAT      O 5283   2.351   2.418   2.225  0.0266  0.2800  0.3785
 1691WAT     H1 5284   2.376   2.361   2.153 -1.7954  1.7724 -1.5859
 1691WAT     H2 5285   2.332   2.359   2.298 -0.3703 -1.4966 -1.1023
 1692WAT      O 5286   3.891   3.942   0.922 -0.3073  0.1547  0.5564
 1692WAT     H1 5287   3.897   4.013   0.858  2.1830  0.4054  0.9933
 1692WAT     H2 5288   3.843   3.981   0.996  0.5108  1.2290  0.5499
 1693WAT      O 5289   3.159   0.337   5.072  0.1939  0.3814  0.0566
 1693WAT     H1 5290   3.149   0.281   4.995 -1.0035  0.9462 -0.2366
 1693WAT     H2 5291   3.235   0.392   5.052  0.3344  0.0224 -0.4059
 1694WAT      O 5292   1.837   1.176   4.581  0.0972  0.1388  0.0245
 1694WAT     H1 5293   1.863   1.112   4.647  0.3361  1.3523  1.1441
 1694WAT     H2 5294   1.761   1.221   4.618 -0.5976 -0.0425 -1.1117
 1695WAT      O 5295   2.860   5.169   3.867 -0.0809 -0.0990  0.0421
 1695WAT     H1 5296   2.911   5.198   3.943  0.3533 -1.3413  0.2481
 1695WAT     H2 5297   2.831   5.250   3.826 -0.6224  0.6054  1.7247
 1696WAT      O 5298   2.716   4.622   1.485  0.4687  0.0531 -0.4791
 1696WAT     H1 5299   2.744   4.643   1.574  1.7144  1.6266 -1.1802
 1696WAT     H2 5300   2.621   4.638   1.485  0.1570 -1.5473  0.9446
 1697WAT      O 5301   2.652   0.906   5.818  0.1568 -0.0680 -0.4233
 1697WAT     H1 5302   2.655   0.829   5.762 -1.9134 -0.5293  0.0249
 1697WAT     H2 5303   2.582   0.888   5.880 -0.6244  2.3048 -0.5249
 1698WAT      O 5304   2.097   2.524   3.702  0.1327  0.4047 -0.2398
 1698WAT     H1 5305   2.165   2.517   3.635  0.8305 -1.2118  0.6027
 1698WAT     H2 5306   2.126   2.596   3.758  0.3159  0.7675 -0.7896
 1699WAT      O 5307   2.144   5.502   1.992  0.2841  0.0410  0.2627
 1699WAT     H1 5308   2.211   5.453   2.040 -0.8340  0.0682  1.9489
 1699WAT     H2 5309   2.180   5.589   1.982  1.1108 -0.3457 -0.2021
 1700WAT      O 5310   4.888   3.185   4.935  0.6694 -0.0159  0.3833
 1700WAT     H1 5311   4.895   3.275   4.903 -1.3240 -0.9834 -3.3417
 1700WAT     H2 5312   4.958   3.138   4.889 -0.2091 -0.8903 -0.0972
 1701WAT      O 5313   1.561   3.441   1.545 -0.2133  0.3130  0.2553
 1701WAT     H1 5314   1.492   3.495   1.508  1.7507  1.6279 -1.7797
 1701WAT     H2 5315   1.570   3.367   1.485 -1.1566 -1.0150  1.6454
 1702WAT      O 5316   2.344   4.185   1.740  0.2905  0.3545  0.4218
 1702WAT     H1 5317   2.415   4.121   1.737  0.0493  0.1081 -0.7051
 1702WAT     H2 5318   2.343   4.222   1.652 -0.5822  0.7896  0.6105
 1703WAT      O 5319   2.594   1.973   1.345  0.5805 -0.4526 -0.4122
 1703WAT     H1 5320   2.529   1.910   1.375  1.7519 -0.8180  1.5587
 1703WAT     H2 5321   2.672   1.920   1.327  0.5099  0.0185 -2.4044
 1704WAT      O 5322   4.747   2.843   3.455  0.4062 -0.3852  0.1925
 1704WAT     H1 5323   4.708   2.899   3.522 -0.5893 -1.3394  0.4324
 1704WAT     H2 5324   4.674   2.818   3.399  1.0603 -0.4136 -0.6837
 1705WAT      O 5325   1.859   3.589   5.337 -0.2254 -0.3469  0.4548
 1705WAT     H1 5326   1.868   3.652   5.265 -0.5404 -0.3468  0.4163
 1705WAT     H2 5327   1.805   3.634   5.402  1.2432  0.2306  1.3480
 1706WAT      O 5328   3.415   5.557   4.190  0.1280  0.9750 -0.2371
 1706WAT     H1 5329   3.389   5.498   4.120  0.4654 -1.0590  1.2629
 1706WAT     H2 5330   3.332   5.584   4.230  0.0148 -0.5272  0.6223
 1707WAT      O 5331   0.661   2.582   0.990 -0.2192 -0.4093  0.3070
 1707WAT     H1 5332   0.576   2.618   1.014 -1.2229 -1.9859 -0.6845
 1707WAT     H2 5333   0.674   2.610   0.899  1.4918  1.8305  1.1575
 1708WAT      O 5334   1.444   2.037   1.313 -0.3037 -0.6725 -0.4364
 1708WAT     H1 5335   1.516   1.977   1.333 -0.5554 -0.2952  1.9291
 1708WAT     H2 5336   1.391   2.038   1.392 -1.6592  0.8029 -1.3018
 1709WAT      O 5337   3.229   2.787   5.631 -0.0692 -0.2469  0.0103
 1709WAT     H1 5338   3.307   2.836   5.603 -0.2685  0.0199 -0.0913
 1709WAT     H2 5339   3.156   2.841   5.600 -0.3053 -1.1278 -1.0374
 1710WAT      O 5340   4.717   4.362   0.026  0.1146 -0.4303  0.8694
 1710WAT     H1 5341   4.752   4.345   0.113  0.3684 -0.7706  0.7061
 1710WAT     H2 5342   4.784   4.329  -0.033  0.0095 -0.0691  0.5441
 1711WAT      O 5343   2.579   5.128   1.339 -0.1163 -0.5381 -0.4876
 1711WAT     H1 5344   2.603   5.220   1.323  0.1339  0.0903  2.7597
 1711WAT     H2 5345   2.662   5.080   1.329  0.7864  0.3283  2.0376
 1712WAT      O 5346   3.619   0.416   4.632  0.0768 -0.0341 -0.3322
 1712WAT     H1 5347   3.537   0.422   4.583 -0.3489  1.2871  0.4835
 1712WAT     H2 5348   3.684   0.459   4.577 -0.6020  2.3367  0.5901
 1713WAT      O 5349   2.790   0.203   5.291  0.4844 -0.6163  0.2530
 1713WAT     H1 5350   2.789   0.158   5.376 -1.4672  0.1310  0.6754
 1713WAT     H2 5351   2.765   0.136   5.228 -0.1140 -0.7071  0.5724
 1714WAT      O 5352   3.534   4.803   4.437 -0.5416 -0.6699  0.1667
 1714WAT     H1 5353   3.528   4.851   4.354 -0.7018 -0.6348  0.1987
 1714WAT     H2 5354   3.609   4.744   4.425  1.7642  1.8107  1.2504
 1715WAT      O 5355   3.251   5.128   0.345 -0.1394 -0.2254  0.3619
 1715WAT     H1 5356   3.316   5.068   0.382  0.0301  0.2412  0.8388
 1715WAT     H2 5357   3.167   5.088   0.365 -0.0733  0.2603  1.7288
 1716WAT      O 5358   3.390   5.137   5.563  0.3542 -0.4082  0.3229
 1716WAT     H1 5359   3.347   5.132   5.649  1.1434  0.1170  0.7576
 1716WAT     H2 5360   3.437   5.220   5.565  0.7161 -0.5927 -0.4661
 1717WAT      O 5361   1.533   4.469   3.777  0.4485 -0.3820 -0.3594
 1717WAT     H1 5362   1.577   4.385   3.791  0.8666  0.0704  1.3389
 1717WAT     H2 5363   1.483   4.483   3.857 -0.2407  0.6247 -0.9447
 1718WAT      O 5364   0.903   3.994   1.126  0.3030 -0.4588  0.2328
 1718WAT     H1 5365   0.828   3.985   1.067 -0.1257 -1.8247  0.9469
 1718WAT     H2 5366   0.888   4.077   1.171 -0.5517 -0.5001  0.0438
 1719WAT      O 5367   1.970   4.676   1.823  0.0678 -0.4643  0.6107
 1719WAT     H1 5368   2.013   4.620   1.887 -1.4828  0.6718  2.7394
 1719WAT     H2 5369   1.984   4.765   1.854  0.1753  0.2198 -1.2373
 1720WAT      O 5370   4.434   1.771   1.362  0.0110  0.2059 -0.1980
 1720WAT     H1 5371   4.408   1.767   1.269  2.5386  0.0609 -0.9545
 1720WAT     H2 5372   4.377   1.838   1.399 -1.2971  0.0410 -1.7652
 1721WAT      O 5373   2.333   0.830   4.721 -0.2361  0.1136  0.2938
 1721WAT     H1 5374   2.416   0.785   4.740 -0.2885 -0.7677 -1.3654
 1721WAT     H2 5375   2.300   0.857   4.806  0.2028 -2.2952  1.3110
 1722WAT      O 5376   0.696   2.625   0.724  0.2004 -0.1275  0.5879
 1722WAT     H1 5377   0.645   2.645   0.646  0.0200  0.8182  0.9392
 1722WAT     H2 5378   0.778   2.674   0.713 -0.6442  1.6809  1.9084
 1723WAT      O 5379   1.623   0.840   4.848 -0.2333 -0.9253 -0.8357
 1723WAT     H1 5380   1.660   0.753   4.859  0.0505 -0.7355 -0.2490
 1723WAT     H2 5381   1.547   0.827   4.791 -0.9201 -1.7488  0.2387
 1724WAT      O 5382   4.477   3.550   1.548 -0.1140 -0.4967  0.2871
 1724WAT     H1 5383   4.573   3.560   1.550 -0.1840  0.8059 -0.9512
 1724WAT     H2 5384   4.457   3.537   1.455 -1.0641 -1.7996  0.6569
 1725WAT      O 5385   2.546   0.840   5.512 -0.1092  0.5099 -0.1797
 1725WAT     H1 5386   2.531   0.931   5.485 -1.8519 -0.8049 -4.4253
 1725WAT     H2 5387   2.620   0.811   5.458 -1.5937 -1.3682 -1.3436
 1726WAT      O 5388   1.593   4.237   3.900 -0.0413 -0.4448 -0.1186
 1726WAT     H1 5389   1.542   4.172   3.851  1.2904 -1.7238  0.1344
 1726WAT     H2 5390   1.684   4.220   3.874  0.4153  0.7432  0.6427
 1727WAT      O 5391   0.093   3.489   3.830  0.2729  0.1125  0.1315
 1727WAT     H1 5392   0.124   3.399   3.829 -0.0795 -0.0548 -2.7110
 1727WAT     H2 5393   0.171   3.541   3.850  0.4109 -0.7699  2.1381
 1728WAT      O 5394   2.091   5.222   1.893 -0.0939  0.6731  0.0386
 1728WAT     H1 5395   2.080   5.317   1.885 -0.2943  0.7308  0.9323
 1728WAT     H2 5396   2.184   5.207   1.873 -0.6320  0.6872 -3.0539
 1729WAT      O 5397   4.426   3.941   1.676 -0.6424 -0.2370 -0.1550
 1729WAT     H1 5398   4.512   3.901   1.662 -0.1602  0.8941 -0.5501
 1729WAT     H2 5399   4.363   3.871   1.655  0.1435 -0.2928 -2.6768
 1730WAT      O 5400   2.073   4.119   5.557  0.2398  0.1575 -0.0288
 1730WAT     H1 5401   2.157   4.078   5.536 -0.2189 -2.5244  2.7293
 1730WAT     H2 5402   2.097   4.199   5.605  1.4076 -1.8531  3.0162
 1731WAT      O 5403   3.273   4.833   5.782  0.4711 -0.4881 -0.1145
 1731WAT     H1 5404   3.343   4.851   5.844 -0.0177  0.9638  0.0605
 1731WAT     H2 5405   3.197   4.878   5.819 -0.6123 -2.1612 -0.2178
 1732WAT      O 5406   2.901   5.143   0.253  0.3375  0.1774 -0.0897
 1732WAT     H1 5407   2.925   5.230   0.285 -0.2451 -0.0877  1.1250
 1732WAT     H2 5408   2.843   5.108   0.321 -0.3849 -0.6954 -1.1286
 1733WAT      O 5409   2.958   2.661   5.366  0.0836 -0.4901  0.0053
 1733WAT     H1 5410   3.048   2.695   5.363  0.9326 -2.5725  0.1949
 1733WAT     H2 5411   2.949   2.611   5.285 -1.0540 -0.0243 -0.1710
 1734WAT      O 5412   1.889   0.131   0.418 -0.2217  0.0578 -0.1258
 1734WAT     H1 5413   1.893   0.141   0.323 -3.5314  0.0541 -0.3855
 1734WAT     H2 5414   1.876   0.037   0.431  0.1652  0.0660  0.3201
 1735WAT      O 5415   0.158   2.204   2.341 -0.1218 -0.2768 -0.3056
 1735WAT     H1 5416   0.223   2.261   2.382 -0.1884  0.9820 -1.8634
 1735WAT     H2 5417   0.112   2.163   2.415  1.5004 -0.1590  0.8340
 1736WAT      O 5418   2.090   3.023   0.389  0.3745  0.0021 -0.2575
 1736WAT     H1 5419   2.046   2.947   0.426  0.9699 -0.4955 -0.5538
 1736WAT     H2 5420   2.057   3.029   0.300 -2.2531  2.1203  0.7138
 1737WAT      O 5421   4.884   1.831   4.804 -1.3828  0.2178  0.0394
 1737WAT     H1 5422   4.919   1.916   4.775  0.2081 -1.0076 -1.8703
 1737WAT     H2 5423   4.960   1.781   4.830 -2.1772 -1.0532 -0.0088
 1738WAT      O 5424   2.049   3.926   4.170 -0.2786 -0.1113  0.7126
 1738WAT     H1 5425   1.955   3.919   4.157 -0.3212 -1.3649  1.4712
 1738WAT     H2 5426   2.087   3.889   4.090 -0.3992  1.3308 -0.0330
 1739WAT      O 5427   3.364   0.413   1.704 -0.5741  0.0225  0.1646
 1739WAT     H1 5428   3.271   0.393   1.691 -0.6819  0.6639 -0.1261
 1739WAT     H2 5429   3.365   0.473   1.779 -0.5675  1.2417 -0.7625
 1740WAT      O 5430   3.123   3.077   1.261  0.7296  0.0236  0.2324
 1740WAT     H1 5431   3.086   3.165   1.266 -0.2051 -0.3867  0.6946
 1740WAT     H2 5432   3.180   3.079   1.184  1.8936  1.4650  1.0710
 1741WAT      O 5433   3.834   4.741   1.946  0.8341  0.4227 -0.0555
 1741WAT     H1 5434   3.918   4.767   1.983  1.4657 -2.1972  0.5933
 1741WAT     H2 5435   3.843   4.647   1.930 -2.4359 -0.3019  1.4311
 1742WAT      O 5436   1.322   2.849   2.215  0.8184 -0.5200  0.4889
 1742WAT     H1 5437   1.378   2.772   2.215  0.2534 -0.9565 -0.3199
 1742WAT     H2 5438   1.237   2.817   2.182  0.2536  0.2218  1.1828
 1743WAT      O 5439   0.787   3.654   5.284 -0.2413  0.0542 -0.4569
 1743WAT     H1 5440   0.867   3.603   5.273 -0.4125 -0.2128 -0.4752
 1743WAT     H2 5441   0.778   3.664   5.379 -0.4246 -0.3057 -0.4315
 1744WAT      O 5442   3.404   0.399   1.422  0.3156 -0.0685  0.2723
 1744WAT     H1 5443   3.493   0.367   1.413 -0.1254 -1.5353  0.7853
 1744WAT     H2 5444   3.376   0.369   1.509 -0.6208  0.4846  0.1770
 1745WAT      O 5445   4.176   2.493   1.767  0.0410  0.2009  0.3274
 1745WAT     H1 5446   4.209   2.518   1.854 -0.4903  0.6417  0.4128
 1745WAT     H2 5447   4.253   2.464   1.719  0.3090 -0.2745  1.0237
 1746WAT      O 5448   2.934   1.036   5.336 -0.3341 -0.7049  0.0599
 1746WAT     H1 5449   3.008   1.000   5.385  0.2930 -1.1695 -1.1679
 1746WAT     H2 5450   2.929   1.127   5.364  1.0112 -0.5422 -0.1531
 1747WAT      O 5451   0.459   2.018   0.949 -0.0663  0.0389 -0.3392
 1747WAT     H1 5452   0.486   1.930   0.924 -0.0398 -0.5038  1.4033
 1747WAT     H2 5453   0.365   2.010   0.968  0.1922  0.0497  1.0510
 1748WAT      O 5454   1.381   3.572   1.815  0.0652  0.2398  0.3067
 1748WAT     H1 5455   1.390   3.623   1.735 -1.0001 -0.6901 -0.4437
 1748WAT     H2 5456   1.336   3.492   1.788  1.7251 -1.1564  1.4330
 1749WAT      O 5457   1.994   2.441   0.027  0.1722  0.6361 -0.3659
 1749WAT     H1 5458   1.905   2.448   0.061  0.1656  0.5246 -0.3581
 1749WAT     H2 5459   2.040   2.388   0.093  0.9020  2.7194  0.9043
 1750WAT      O 5460   2.924   4.703   0.592  0.2297 -0.0206 -0.0786
 1750WAT     H1 5461   2.990   4.747   0.644  0.2758  1.9916 -1.7185
 1750WAT     H2 5462   2.963   4.618   0.570  1.7164  0.6019  0.0653
 1751WAT      O 5463   1.988   4.499   5.697  0.2114 -0.4168  0.0729
 1751WAT     H1 5464   1.982   4.556   5.774  1.8879 -1.4272  0.9972
 1751WAT     H2 5465   1.901   4.460   5.691 -1.0531  2.2338 -0.6698
 1752WAT      O 5466   2.719   2.746   4.865 -0.0869  0.9911  0.2146
 1752WAT     H1 5467   2.738   2.684   4.935  1.1403  1.0459 -0.0591
 1752WAT     H2 5468   2.687   2.824   4.910 -1.1683  0.3646  0.5878
 1753WAT      O 5469   3.769   0.346   4.195 -0.7876  0.0403 -0.2723
 1753WAT     H1 5470   3.762   0.428   4.243 -0.0473  0.2846 -0.5636
 1753WAT     H2 5471   3.679   0.318   4.181 -1.0432  0.7673 -0.1126
 1754WAT      O 5472   3.172   0.630   0.806 -0.6794  0.2513 -0.1167
 1754WAT     H1 5473   3.254   0.677   0.816 -1.3512  1.0617  2.5323
 1754WAT     H2 5474   3.195   0.538   0.818  0.1870  0.1399 -2.2482
 1755WAT      O 5475   2.304   5.456   5.582 -0.6033  0.7547  0.1214
 1755WAT     H1 5476   2.260   5.502   5.510  0.0228 -0.2527 -0.9402
 1755WAT     H2 5477   2.385   5.423   5.543 -0.8379 -0.8859  0.9459
 1756WAT      O 5478   2.756   0.167   2.424  0.0629 -0.1621  0.2427
 1756WAT     H1 5479   2.825   0.100   2.422  0.1553 -0.1068  1.0799
 1756WAT     H2 5480   2.796   0.243   2.381 -0.3373 -0.8876 -1.4830
 1757WAT      O 5481   2.702   4.272   2.400  0.9203  0.2439 -0.0072
 1757WAT     H1 5482   2.779   4.269   2.456 -0.3845 -0.6591  1.8619
 1757WAT     H2 5483   2.701   4.187   2.356 -0.1431 -0.6659  1.6769
 1758WAT      O 5484   2.106   2.159   5.669 -0.4820  0.1062  0.7014
 1758WAT     H1 5485   2.118   2.071   5.705  2.4848  0.0269 -0.1902
 1758WAT     H2 5486   2.190   2.203   5.686 -0.6611  1.6001 -1.8294
 1759WAT      O 5487   3.595   3.366   5.685 -0.7180 -0.2888  0.3466
 1759WAT     H1 5488   3.539   3.386   5.610 -0.4432 -0.7504  0.0078
 1759WAT     H2 5489   3.677   3.335   5.645 -0.5642 -0.5209  0.8375
 1760WAT      O 5490   2.836   3.511   5.239 -0.2025  0.6313 -0.2988
 1760WAT     H1 5491   2.893   3.479   5.309 -0.2836 -0.9137 -0.8933
 1760WAT     H2 5492   2.890   3.573   5.190  0.9055 -0.5575 -0.6563
 1761WAT      O 5493   2.145   2.520   4.911  0.3338 -0.1669 -0.3409
 1761WAT     H1 5494   2.065   2.491   4.953  1.0922 -0.5792  0.8678
 1761WAT     H2 5495   2.121   2.602   4.867 -0.4619  0.3792  1.0431
 1762WAT      O 5496   0.435   2.245   4.808 -0.3207  0.1418  0.1842
 1762WAT     H1 5497   0.393   2.228   4.724  0.7061 -1.1729 -0.0938
 1762WAT     H2 5498   0.520   2.200   4.803  0.1953  0.8710  1.5456
 1763WAT      O 5499   0.238   3.670   1.768 -0.5651 -0.4037  0.2843
 1763WAT     H1 5500   0.163   3.720   1.737  1.1134  1.7495 -0.5318
 1763WAT     H2 5501   0.222   3.659   1.862 -1.4922  0.7581  0.2862
 1764WAT      O 5502   4.593   2.055   0.907 -0.3361  0.7667  0.2663
 1764WAT     H1 5503   4.528   1.985   0.911  1.3164 -1.0639 -2.0522
 1764WAT     H2 5504   4.549   2.126   0.862 -1.7409  0.9271  1.7889
 1765WAT      O 5505   2.882   1.498   4.452 -0.3934 -0.8066 -0.3458
 1765WAT     H1 5506   2.864   1.495   4.546  1.9851 -1.0228  0.1588
 1765WAT     H2 5507   2.860   1.588   4.426 -1.2069 -0.7903  0.3647
 1766WAT      O 5508   1.679   2.272   3.756  0.7447 -0.1092 -0.6652
 1766WAT     H1 5509   1.755   2.306   3.709  1.7966  0.1714  1.1418
 1766WAT     H2 5510   1.695   2.294   3.847 -0.6908 -1.5744  0.0008
 1767WAT      O 5511   2.584   4.996   4.973  0.3841 -0.0490 -0.1122
 1767WAT     H1 5512   2.500   4.950   4.977 -0.4279  1.4447  0.7580
 1767WAT     H2 5513   2.648   4.932   5.005 -0.6144 -0.7777  0.4619
 1768WAT      O 5514   1.876   2.697   0.636 -0.6189  0.3105 -0.0050
 1768WAT     H1 5515   1.811   2.758   0.599 -0.6481 -0.2573 -0.9364
 1768WAT     H2 5516   1.902   2.736   0.719 -2.5325  0.3111  0.6472
 1769WAT      O 5517   3.858   1.700   0.745  0.1033  0.3679  0.5445
 1769WAT     H1 5518   3.907   1.705   0.827  0.0251 -2.1008  0.8122
 1769WAT     H2 5519   3.770   1.672   0.772 -0.2207  0.5386 -0.3138
 1770WAT      O 5520   1.347   2.234   4.776  0.1024 -0.6552 -0.7512
 1770WAT     H1 5521   1.397   2.273   4.704  0.5180 -1.6100 -0.9882
 1770WAT     H2 5522   1.360   2.294   4.850  0.3426 -0.1038 -1.2381
 1771WAT      O 5523   2.091   2.204   4.917 -0.4017  0.0862  0.0248
 1771WAT     H1 5524   2.154   2.271   4.944 -0.1604 -0.7300  1.6653
 1771WAT     H2 5525   2.020   2.211   4.981 -1.4307  0.2163 -1.1081
 1772WAT      O 5526   3.817   0.280   5.723 -0.1605  0.3528 -1.0734
 1772WAT     H1 5527   3.772   0.199   5.746  3.0862 -1.7075 -1.2773
 1772WAT     H2 5528   3.833   0.323   5.806  1.5932 -1.3678 -0.4229
 1773WAT      O 5529   3.137   2.800   5.014  0.2725 -0.7844  0.0781
 1773WAT     H1 5530   3.043   2.811   5.027  0.4920 -0.2711  1.4750
 1773WAT     H2 5531   3.158   2.856   4.940  0.0078  1.9404  1.9241
 1774WAT      O 5532   1.163   3.981   4.651 -0.1170 -0.2046  0.2181
 1774WAT     H1 5533   1.150   4.051   4.588 -1.8374 -0.7500 -0.0950
 1774WAT     H2 5534   1.090   3.989   4.711  1.5257  0.3560  2.2670
 1775WAT      O 5535   3.518   1.186   5.379 -1.0989  0.3079 -0.0370
 1775WAT     H1 5536   3.479   1.269   5.407  0.7590  0.8266  1.2624
 1775WAT     H2 5537   3.559   1.151   5.458 -0.7390 -1.2189 -0.8535
 1776WAT      O 5538   3.675   4.098   0.065  0.1641  0.5199  0.5228
 1776WAT     H1 5539   3.584   4.120   0.084  0.2185  1.4457 -0.2061
 1776WAT     H2 5540   3.695   4.149  -0.013  0.8946 -0.7206 -0.1287
 1777WAT      O 5541   4.063   1.139   3.554 -0.1585 -0.2288  0.2281
 1777WAT     H1 5542   4.088   1.072   3.618  0.0952 -0.8441 -0.5033
 1777WAT     H2 5543   3.970   1.124   3.539 -0.8985  1.5879  2.3888
 1778WAT      O 5544   2.019   3.428   1.254  0.0420 -0.0163  0.0073
 1778WAT     H1 5545   2.049   3.369   1.184  1.6222  0.1046  0.5329
 1778WAT     H2 5546   2.068   3.400   1.331 -0.4609  0.8913  0.6701
 1779WAT      O 5547   1.906   4.370   3.231  1.0044  0.1738  0.0308
 1779WAT     H1 5548   1.969   4.335   3.169  1.7209  1.5147 -0.0277
 1779WAT     H2 5549   1.956   4.386   3.311  0.7164  1.0382  0.0574
 1780WAT      O 5550   1.622   2.377   4.368 -0.0160 -0.2025  0.3853
 1780WAT     H1 5551   1.682   2.418   4.306 -0.3130 -0.2309  0.0742
 1780WAT     H2 5552   1.543   2.359   4.317 -0.6083  0.6144  0.9966
 1781WAT      O 5553   2.575   4.231   5.408 -0.3590 -0.4121 -0.0167
 1781WAT     H1 5554   2.609   4.319   5.389  0.4556 -0.5838  0.6111
 1781WAT     H2 5555   2.617   4.175   5.344 -2.2807 -0.1137 -1.6437
 1782WAT      O 5556   2.975   3.981   5.053 -0.5826 -0.8311 -0.3069
 1782WAT     H1 5557   2.957   3.893   5.022 -1.4785 -0.5221 -0.7024
 1782WAT     H2 5558   2.961   4.037   4.976  2.7836 -0.5732 -0.8772
 1783WAT      O 5559   2.382   2.060   0.835 -0.3217 -0.3420 -0.0585
 1783WAT     H1 5560   2.425   2.107   0.763  0.5542 -0.8463  0.1298
 1783WAT     H2 5561   2.417   1.971   0.830  0.4109 -0.1804  1.5107
 1784WAT      O 5562   0.777   3.126   3.049 -0.7170  0.3035 -0.3825
 1784WAT     H1 5563   0.806   3.090   2.964 -1.1253  0.1491 -0.4561
 1784WAT     H2 5564   0.694   3.170   3.029 -1.8720 -1.4736  0.3073
 1785WAT      O 5565   1.728   1.721   0.041 -0.0686  0.5800 -0.1171
 1785WAT     H1 5566   1.741   1.647  -0.018  1.3974 -0.2426  1.1644
 1785WAT     H2 5567   1.801   1.780   0.021  1.2111 -0.2975  1.6445
 1786WAT      O 5568   3.213   3.332   0.526  0.3216 -0.1669  0.6380
 1786WAT     H1 5569   3.123   3.337   0.556  0.5864 -0.6379  1.5560
 1786WAT     H2 5570   3.223   3.241   0.496 -0.0369  0.3765 -1.2705
 1787WAT      O 5571   2.122   1.578   4.995 -0.2701 -0.1767 -0.2847
 1787WAT     H1 5572   2.029   1.579   5.019  0.1388 -1.0369  1.4853
 1787WAT     H2 5573   2.131   1.650   4.933 -1.8694  0.7607  0.4952
 1788WAT      O 5574   3.239   4.646   4.453  0.5152  0.0868 -0.0568
 1788WAT     H1 5575   3.311   4.658   4.514 -0.3583  1.5087  0.7381
 1788WAT     H2 5576   3.278   4.661   4.367  1.1402  1.0607  0.3811
 1789WAT      O 5577   4.244   1.658   1.201  1.0137 -0.3578  0.5741
 1789WAT     H1 5578   4.209   1.747   1.206  1.4521 -0.0571 -1.0875
 1789WAT     H2 5579   4.166   1.601   1.204  0.6672  0.1242  0.7811
 1790WAT      O 5580   0.816   3.430   4.290  0.6308  0.6809  0.1007
 1790WAT     H1 5581   0.754   3.461   4.223  2.0088 -0.2901 -1.7261
 1790WAT     H2 5582   0.844   3.509   4.335 -0.2440  1.3953 -0.5639
 1791WAT      O 5583   3.694   2.422   4.091 -0.4441 -0.3122 -0.1310
 1791WAT     H1 5584   3.726   2.360   4.156  0.5234  0.7735  0.4643
 1791WAT     H2 5585   3.601   2.401   4.081 -0.7429 -0.2037  1.9949
 1792WAT      O 5586   1.190   1.371   5.681 -0.4025 -0.1063  0.4556
 1792WAT     H1 5587   1.264   1.364   5.621  0.6349  1.4235  1.4692
 1792WAT     H2 5588   1.204   1.301   5.745 -1.4261 -1.6384 -0.9256
 1793WAT      O 5589   3.221   2.691   4.061  0.2770  0.2259 -0.1551
 1793WAT     H1 5590   3.263   2.618   4.015 -1.4318  0.1195 -1.6474
 1793WAT     H2 5591   3.293   2.737   4.104  1.6249 -1.1969 -0.8074
 1794WAT      O 5592   2.490   3.282   4.447 -0.1909  0.0747 -0.2270
 1794WAT     H1 5593   2.519   3.229   4.373  1.0167 -1.7721  1.4703
 1794WAT     H2 5594   2.420   3.337   4.411  1.2503  0.2630 -3.0335
 1795WAT      O 5595   2.001   0.354   0.515 -0.3959  0.5060  0.2532
 1795WAT     H1 5596   2.065   0.341   0.585  0.1305 -0.9280 -0.4674
 1795WAT     H2 5597   1.974   0.266   0.490 -0.2631  0.9657 -1.6441
 1796WAT      O 5598   4.153   0.795   4.992  0.2970 -0.1819 -0.5594
 1796WAT     H1 5599   4.113   0.775   4.907  0.7354  1.2150 -1.1153
 1796WAT     H2 5600   4.116   0.730   5.052 -0.5103 -0.7830 -1.6806
 1797WAT      O 5601   2.607   3.545   0.143 -0.1849 -0.1866 -0.4988
 1797WAT     H1 5602   2.629   3.517   0.054 -0.6925  0.0168 -0.6879
 1797WAT     H2 5603   2.600   3.640   0.137  0.1725 -0.1346 -0.1516
 1798WAT      O 5604   2.447   4.725   4.338  0.1371  0.8984  0.2315
 1798WAT     H1 5605   2.491   4.699   4.418 -0.5263  0.1946  0.3789
 1798WAT     H2 5606   2.452   4.648   4.281 -1.0576  0.7279  0.3286
 1799WAT      O 5607   2.198   2.449   4.656  0.3353  0.4538 -0.1306
 1799WAT     H1 5608   2.287   2.430   4.627  0.8990  2.0907  0.4601
 1799WAT     H2 5609   2.207   2.480   4.745 -0.6840  1.8240 -0.4733
 1800WAT      O 5610   3.449   3.254   0.350  0.1210  0.6200 -0.6325
 1800WAT     H1 5611   3.389   3.325   0.326 -1.9630 -0.9725 -0.4071
 1800WAT     H2 5612   3.404   3.209   0.422  2.6480  0.6433  1.0665
 1801WAT      O 5613   1.751   2.668   1.731 -0.4671 -0.6461  0.0961
 1801WAT     H1 5614   1.723   2.753   1.699  0.5897 -0.5461 -0.6111
 1801WAT     H2 5615   1.707   2.605   1.675  2.4823 -0.4639 -2.7086
 1802WAT      O 5616   1.345   2.330   4.297 -0.1022  0.0276  0.4480
 1802WAT     H1 5617   1.329   2.273   4.372 -1.0713  0.6773  0.7694
 1802WAT     H2 5618   1.320   2.278   4.221 -0.4480 -0.1711  0.6947
 1803WAT      O 5619   2.085   4.447   4.577  0.1259  0.1164 -0.3067
 1803WAT     H1 5620   2.168   4.490   4.595 -0.3011  0.0175  2.3018
 1803WAT     H2 5621   2.082   4.440   4.481  3.4460 -0.5675 -0.4900
 1804WAT      O 5622   0.621   2.499   4.230  0.3386 -0.3394 -0.7719
 1804WAT     H1 5623   0.591   2.476   4.318  0.1149  0.1542 -0.7209
 1804WAT     H2 5624   0.676   2.576   4.243  0.7570 -0.5923 -0.9998
 1805WAT      O 5625   4.564   3.613   5.143  0.0079  0.1801  0.4466
 1805WAT     H1 5626   4.500   3.607   5.214  1.2481 -1.1659  1.5212
 1805WAT     H2 5627   4.541   3.541   5.084 -0.4164  0.6913 -0.0301
 1806WAT      O 5628   2.298   4.888   0.479 -0.2884  0.3972  0.0824
 1806WAT     H1 5629   2.230   4.881   0.546 -0.1403  1.7411  0.4199
 1806WAT     H2 5630   2.346   4.967   0.504  0.8772 -0.0709 -0.6252
 1807WAT      O 5631   3.047   1.167   5.113  0.4204  0.1572 -0.0167
 1807WAT     H1 5632   3.074   1.118   5.190  2.1012 -0.4620 -0.9412
 1807WAT     H2 5633   2.973   1.118   5.078  1.5266 -1.2995 -0.4321
 1808WAT      O 5634   1.884   2.998   5.590  0.0345  0.3178 -0.2532
 1808WAT     H1 5635   1.863   2.905   5.593 -2.3634  0.5993 -3.5080
 1808WAT     H2 5636   1.980   3.001   5.586  0.3605 -1.7446  2.6065
 1809WAT      O 5637   0.917   3.105   3.302 -0.4238 -1.1267 -0.4153
 1809WAT     H1 5638   0.842   3.083   3.357 -0.2638 -0.7532 -0.0412
 1809WAT     H2 5639   0.879   3.127   3.217 -0.6054 -2.5748 -0.7331
 1810WAT      O 5640   4.099   4.976   0.280  0.5117 -0.0343  0.1429
 1810WAT     H1 5641   4.113   5.041   0.349 -1.6790  0.6729  0.0074
 1810WAT     H2 5642   4.042   4.910   0.321 -1.2804  0.6808 -1.0774
 1811WAT      O 5643   2.085   1.587   1.152 -0.2437 -0.4674 -0.0205
 1811WAT     H1 5644   2.119   1.546   1.231 -0.2074  0.2232  0.3242
 1811WAT     H2 5645   2.126   1.538   1.080  0.6370 -0.3433  0.3826
 1812WAT      O 5646   1.433   1.701   4.654  0.2711 -0.3636 -0.3623
 1812WAT     H1 5647   1.367   1.691   4.586 -1.4086  0.5805  1.0286
 1812WAT     H2 5648   1.417   1.788   4.690  1.6935 -0.4763  0.6434
 1813WAT      O 5649   3.014   3.642   4.501  0.2095  0.0427  0.0596
 1813WAT     H1 5650   3.102   3.611   4.521  0.3812  0.7669  0.4357
 1813WAT     H2 5651   3.027   3.710   4.435 -0.0134  0.5331  0.5132
 1814WAT      O 5652   2.644   3.049   2.547  0.4118  0.1371  0.0680
 1814WAT     H1 5653   2.683   3.064   2.461  0.3905  1.3642  0.2493
 1814WAT     H2 5654   2.552   3.073   2.536  0.5658  1.0413  0.5987
 1815WAT      O 5655   3.689   2.690   2.687  0.7158  0.5177  0.0050
 1815WAT     H1 5656   3.643   2.635   2.750  1.6693  1.1983  1.3382
 1815WAT     H2 5657   3.780   2.661   2.691  1.1283  1.7915  0.3116
 1816WAT      O 5658   3.475   3.901   4.511 -0.3603 -0.1841 -0.0080
 1816WAT     H1 5659   3.396   3.954   4.496 -0.6499 -1.0095 -1.6438
 1816WAT     H2 5660   3.530   3.918   4.435  0.2819 -0.9473  0.2739
 1817WAT      O 5661   1.576   3.248   0.906 -0.6256  0.3398 -0.1024
 1817WAT     H1 5662   1.671   3.252   0.901 -0.6968  1.0754 -4.6913
 1817WAT     H2 5663   1.555   3.293   0.988  2.8960  1.7902  0.1713
 1818WAT      O 5664   2.930   4.975   1.991  0.5622  0.0161  0.2416
 1818WAT     H1 5665   2.918   5.035   1.917 -0.3274  0.1911  0.5115
 1818WAT     H2 5666   2.851   4.987   2.044  1.3964  0.2439  1.4726
 1819WAT      O 5667   1.819   3.092   1.606 -0.3227 -0.2545 -0.2334
 1819WAT     H1 5668   1.909   3.086   1.574 -0.5935 -0.8655 -0.9079
 1819WAT     H2 5669   1.827   3.133   1.692  0.5629  0.0479 -0.4494
 1820WAT      O 5670   4.241   3.693   0.311 -0.1062 -0.0600 -0.2838
 1820WAT     H1 5671   4.173   3.654   0.256 -0.4811 -1.3337  1.0410
 1820WAT     H2 5672   4.297   3.741   0.249 -0.2041 -1.8714 -1.8448
 1821WAT      O 5673   3.855   4.378   3.947  0.0232  0.1435  0.9987
 1821WAT     H1 5674   3.820   4.460   3.912 -1.6488 -0.4467  1.2135
 1821WAT     H2 5675   3.789   4.312   3.924  1.6295 -1.2810  0.2495
 1822WAT      O 5676   2.187   1.922   5.002  0.2521 -0.2637 -0.2538
 1822WAT     H1 5677   2.154   1.866   4.932 -0.6031  0.5337 -0.5060
 1822WAT     H2 5678   2.153   2.009   4.982 -3.3357 -0.6137  3.1567
 1823WAT      O 5679   4.064   1.332   4.965  0.0347  0.2167 -0.7660
 1823WAT     H1 5680   4.099   1.246   4.942  0.8518  0.6439 -1.2067
 1823WAT     H2 5681   4.089   1.345   5.056 -1.1827 -0.5201 -0.3100
 1824WAT      O 5682   3.725   0.701   5.784  0.2445  0.0067  0.0908
 1824WAT     H1 5683   3.780   0.779   5.772 -3.2530  3.0198  1.6833
 1824WAT     H2 5684   3.761   0.657   5.861  2.7282 -0.5249 -1.2632
 1825WAT      O 5685   3.694   0.025   1.653  0.2211  0.0481  0.3302
 1825WAT     H1 5686   3.644  -0.020   1.722 -1.1658 -1.3965 -1.4966
 1825WAT     H2 5687   3.658   0.114   1.652  0.9914  0.4262  2.1027
 1826WAT      O 5688   0.639   3.511   1.218  0.0234 -0.0801 -0.3805
 1826WAT     H1 5689   0.647   3.604   1.197  1.8410 -0.3792 -1.2225
 1826WAT     H2 5690   0.652   3.507   1.313 -2.8008  0.7429  0.1301
 1827WAT      O 5691   0.226   2.984   0.119  0.3909  0.2282  0.5796
 1827WAT     H1 5692   0.154   2.920   0.118  1.0376 -0.5507  1.6669
 1827WAT     H2 5693   0.185   3.065   0.152  0.0442 -0.2810  1.4415
 1828WAT      O 5694   3.954   3.917   1.609  0.3297 -0.1959  0.0123
 1828WAT     H1 5695   4.018   3.851   1.634  0.2771 -0.3309 -0.2077
 1828WAT     H2 5696   3.891   3.870   1.555  0.2971  0.0373 -0.1535
 1829WAT      O 5697   2.228   0.699   1.674  0.4414 -0.0081 -0.0968
 1829WAT     H1 5698   2.271   0.784   1.663 -0.4941  0.5505  0.4336
 1829WAT     H2 5699   2.145   0.709   1.626  0.9794 -1.1489 -1.3275
 1830WAT      O 5700   2.588   3.858   5.625 -0.1260  0.3569 -0.4273
 1830WAT     H1 5701   2.676   3.868   5.591 -0.6064  1.2348 -1.4664
 1830WAT     H2 5702   2.571   3.764   5.623  0.9284  0.1388  0.1987
 1831WAT      O 5703   3.654   4.184   3.871  0.6633  0.7219 -0.1564
 1831WAT     H1 5704   3.672   4.178   3.777 -2.3960  1.3641 -0.8726
 1831WAT     H2 5705   3.599   4.109   3.890 -0.2509  1.5830  0.7025
 1832WAT      O 5706   0.067   4.264   0.109  0.1246  0.1769  0.0942
 1832WAT     H1 5707   0.068   4.350   0.152 -0.7783  0.2317  0.0109
 1832WAT     H2 5708   0.034   4.282   0.021  1.4113 -0.0269 -0.4456
 1833WAT      O 5709   3.559   5.301   5.042 -0.2594  0.1680 -0.0106
 1833WAT     H1 5710   3.646   5.260   5.041 -1.1238 -1.7957  0.7498
 1833WAT     H2 5711   3.574   5.386   5.084  1.6369  0.8419 -1.8516
 1834WAT      O 5712   2.786   0.559   2.778  0.1295  0.1609  0.0177
 1834WAT     H1 5713   2.812   0.647   2.749  1.2511  0.2073  1.0882
 1834WAT     H2 5714   2.760   0.570   2.869  1.0597 -0.7239  0.4191
 1835WAT      O 5715   1.229   2.574   1.657 -0.4502 -0.0637 -0.2076
 1835WAT     H1 5716   1.166   2.646   1.658 -0.8420 -0.2676 -2.6176
 1835WAT     H2 5717   1.200   2.519   1.584  1.4198 -1.1982 -0.1500
 1836WAT      O 5718   1.533   2.418   4.640  0.0604 -0.3467  0.1641
 1836WAT     H1 5719   1.587   2.414   4.561  1.5886  2.5568  0.9302
 1836WAT     H2 5720   1.596   2.418   4.712 -1.1795 -0.5149  1.2894
 1837WAT      O 5721   3.136   1.475   5.350 -0.0014  0.0373 -0.1284
 1837WAT     H1 5722   3.112   1.489   5.442  0.5748 -0.0375  0.0396
 1837WAT     H2 5723   3.069   1.415   5.317 -0.8871  0.9774 -0.0912
 1838WAT      O 5724   3.045   4.262   5.257 -0.7784 -0.4461 -0.2075
 1838WAT     H1 5725   2.988   4.235   5.185  1.1848 -0.3748 -1.8695
 1838WAT     H2 5726   3.084   4.344   5.228 -1.1852  0.4670  1.6911
 1839WAT      O 5727   2.258   5.178   3.765 -0.3483 -0.6818  0.0636
 1839WAT     H1 5728   2.303   5.174   3.681 -1.1579 -0.0931 -0.4113
 1839WAT     H2 5729   2.315   5.233   3.820  0.4462 -1.4987  0.0887
 1840WAT      O 5730   4.296   2.517   1.997  0.0393  0.6265  0.2088
 1840WAT     H1 5731   4.252   2.537   2.080 -1.7627 -1.0626 -0.2762
 1840WAT     H2 5732   4.329   2.428   2.009 -2.8722 -0.8648 -1.8384
 1841WAT      O 5733   0.776   2.953   3.907  0.6882  0.6989  0.0508
 1841WAT     H1 5734   0.693   2.985   3.942 -0.3192 -0.5624 -1.0245
 1841WAT     H2 5735   0.775   2.859   3.927  0.3151  0.0261 -2.7259
 1842WAT      O 5736   3.173   0.849   4.642 -0.5583 -0.7290  0.1609
 1842WAT     H1 5737   3.252   0.904   4.638 -0.7141 -0.4899  0.3571
 1842WAT     H2 5738   3.207   0.759   4.643 -0.3021 -0.6392 -0.1466
 1843WAT      O 5739   1.823   4.564   5.461 -0.5694 -0.0443 -0.2374
 1843WAT     H1 5740   1.895   4.548   5.522  0.4759 -1.3528 -1.7373
 1843WAT     H2 5741   1.791   4.477   5.438  0.4975  0.2371 -3.1627
 1844WAT      O 5742   2.192   1.184   1.761 -0.3830  0.2721 -0.1629
 1844WAT     H1 5743   2.243   1.105   1.779 -1.4009 -0.3065  0.2608
 1844WAT     H2 5744   2.258   1.250   1.739  0.5414 -0.4657  0.3050
 1845WAT      O 5745   2.233   2.563   5.677  0.0462  0.0049 -0.1736
 1845WAT     H1 5746   2.254   2.646   5.636  2.4677 -1.4105 -2.1008
 1845WAT     H2 5747   2.146   2.576   5.715  0.5761  3.5352  0.1746
 1846WAT      O 5748   1.375   4.643   3.078  0.1209  0.1925 -0.4318
 1846WAT     H1 5749   1.433   4.710   3.114  1.6387  0.0950 -2.5146
 1846WAT     H2 5750   1.352   4.589   3.154  2.6544  0.3492  0.5445
 1847WAT      O 5751   2.364   1.657   0.345 -0.6578  0.2625 -0.4457
 1847WAT     H1 5752   2.320   1.715   0.406 -0.2165  0.5906 -0.4325
 1847WAT     H2 5753   2.445   1.632   0.390 -0.2663  0.6129 -0.9372
 1848WAT      O 5754   3.038   4.687   2.778 -0.3577 -0.3020  0.8069
 1848WAT     H1 5755   3.057   4.652   2.865  0.0252  0.6932  1.1337
 1848WAT     H2 5756   2.951   4.653   2.757 -1.1252  0.6634  2.2392
 1849WAT      O 5757   0.932   3.176   5.200  0.6786  0.3983 -0.0166
 1849WAT     H1 5758   0.986   3.123   5.141 -0.4369 -0.9016  0.0667
 1849WAT     H2 5759   0.842   3.154   5.175  0.1947  0.8693  1.2514
 1850WAT      O 5760   4.189   2.998   4.706  0.4456 -0.3284 -0.1686
 1850WAT     H1 5761   4.108   2.954   4.732  0.6751 -0.1665  0.8806
 1850WAT     H2 5762   4.258   2.948   4.750  0.7191  0.9831  0.9761
 1851WAT      O 5763   0.941   3.647   2.737  0.0076  0.1516  0.2133
 1851WAT     H1 5764   0.947   3.682   2.826  0.4557  1.0554 -0.1598
 1851WAT     H2 5765   0.998   3.570   2.737  1.3391  1.1089  0.2761
 1852WAT      O 5766   0.954   2.736   3.967  0.0247 -0.0974  0.4715
 1852WAT     H1 5767   0.940   2.666   4.030 -0.3770 -0.4761 -0.0323
 1852WAT     H2 5768   0.991   2.808   4.018 -0.5931 -0.2872  1.1964
 1853WAT      O 5769   2.325   0.147   0.840  0.1735  0.9754 -0.7516
 1853WAT     H1 5770   2.420   0.156   0.832  0.2814  0.7163  0.1139
 1853WAT     H2 5771   2.311   0.055   0.862 -0.1263  1.4122  1.0085
 1854WAT      O 5772   1.880   5.107   2.230  0.1736  0.2417 -0.3086
 1854WAT     H1 5773   1.854   5.124   2.140  0.8540  2.0397 -0.2201
 1854WAT     H2 5774   1.857   5.015   2.246 -1.3062  0.3150 -1.8182
 1855WAT      O 5775   2.777   2.149   4.834  0.2409  0.0980  0.5467
 1855WAT     H1 5776   2.872   2.156   4.849  0.3049 -0.5240  0.4631
 1855WAT     H2 5777   2.741   2.229   4.872  0.7276  0.0235  1.1822
 1856WAT      O 5778   3.610   0.852   4.633 -0.3863 -0.1374  0.3294
 1856WAT     H1 5779   3.532   0.802   4.656  0.3949 -1.0355  1.1821
 1856WAT     H2 5780   3.615   0.921   4.699 -0.2685 -0.3069  0.4998
 1857WAT      O 5781   2.346   0.235   3.670 -0.0628 -0.3279  0.1753
 1857WAT     H1 5782   2.383   0.321   3.693  0.7003 -0.3722 -0.8135
 1857WAT     H2 5783   2.400   0.172   3.718 -0.1080 -0.2969  0.2674
 1858WAT      O 5784   1.442   1.517   3.312 -0.5370  0.1798  0.2420
 1858WAT     H1 5785   1.472   1.593   3.262 -1.2133  0.4851  0.2871
 1858WAT     H2 5786   1.346   1.526   3.314 -0.5059  0.4652  2.0468
 1859WAT      O 5787   1.934   2.730   4.841 -0.0546 -0.1172  0.1319
 1859WAT     H1 5788   1.848   2.737   4.800 -0.1064 -1.0011  0.0784
 1859WAT     H2 5789   1.925   2.659   4.904  0.1834  0.8430  1.3025
 1860WAT      O 5790   0.167   1.269   0.751 -0.0508 -0.3964 -0.2616
 1860WAT     H1 5791   0.121   1.350   0.733  1.1040  0.3017 -0.2148
 1860WAT     H2 5792   0.253   1.297   0.783  0.0046 -1.6329  0.7668
 1861WAT      O 5793   3.835   4.356   5.018  0.0074 -0.4981  0.6459
 1861WAT     H1 5794   3.855   4.271   4.980  1.0159 -0.0529  0.1556
 1861WAT     H2 5795   3.889   4.361   5.096 -0.3900 -0.4849  0.9244
 1862WAT      O 5796   0.811   2.010   2.875  0.1322 -0.3779 -0.2119
 1862WAT     H1 5797   0.789   1.923   2.842 -2.9357  0.8723 -1.8797
 1862WAT     H2 5798   0.831   1.996   2.968 -0.0724 -2.8617 -0.4755
 1863WAT      O 5799   2.613   3.589   4.253  0.3698  0.5841 -0.5150
 1863WAT     H1 5800   2.625   3.680   4.280  1.7103 -0.1082  1.5295
 1863WAT     H2 5801   2.599   3.542   4.336  3.0794 -1.5108 -1.0851
 1864WAT      O 5802   4.359   4.010   1.946  0.0761 -0.1043 -0.0281
 1864WAT     H1 5803   4.380   4.016   1.853  2.5427  2.4096  0.5822
 1864WAT     H2 5804   4.442   3.989   1.989 -0.9856 -1.1290  1.6719
 1865WAT      O 5805   1.856   2.603   3.286  0.0004 -0.2083 -0.2481
 1865WAT     H1 5806   1.904   2.620   3.205  0.7533 -1.3738 -0.0681
 1865WAT     H2 5807   1.900   2.657   3.351 -0.4321  0.5213 -0.5478
 1866WAT      O 5808   2.541   0.397   4.075 -0.7195  0.5091 -0.1213
 1866WAT     H1 5809   2.583   0.363   4.154 -2.4488 -1.1561  0.1506
 1866WAT     H2 5810   2.528   0.490   4.093 -0.5906  0.2669  1.3594
 1867WAT      O 5811   0.912   1.893   3.466  0.1151 -0.5461 -0.3922
 1867WAT     H1 5812   0.917   1.903   3.371 -0.7596  0.8464 -0.3174
 1867WAT     H2 5813   0.823   1.863   3.483  0.0594 -0.1533  0.0334
 1868WAT      O 5814   1.365   2.531   0.197 -0.0486  0.3978 -0.2048
 1868WAT     H1 5815   1.445   2.501   0.153 -0.3679  0.3362 -0.7515
 1868WAT     H2 5816   1.389   2.536   0.290  0.6065  0.4357 -0.3723
 1869WAT      O 5817   3.792   4.173   0.298  0.2462 -0.0687  0.3979
 1869WAT     H1 5818   3.750   4.141   0.378  1.1838 -1.6222  0.2986
 1869WAT     H2 5819   3.725   4.163   0.230 -0.0714 -0.1059  0.7113
 1870WAT      O 5820   2.715   1.485   4.976  0.1217 -0.3900 -0.2481
 1870WAT     H1 5821   2.786   1.531   5.021 -0.9144  0.9660  0.0716
 1870WAT     H2 5822   2.636   1.529   5.007 -0.7586 -0.8773 -1.7409
 1871WAT      O 5823   2.920   2.614   4.207  0.2456  0.6700 -0.1943
 1871WAT     H1 5824   2.962   2.527   4.212 -0.2027  0.4549 -0.1421
 1871WAT     H2 5825   2.965   2.657   4.134 -0.5553 -0.1703 -1.2181
 1872WAT      O 5826   3.398   3.550   2.924  0.0481 -0.4442  0.8368
 1872WAT     H1 5827   3.371   3.459   2.939  1.7066 -0.8062  1.7913
 1872WAT     H2 5828   3.387   3.592   3.009 -0.4126  0.1921  0.4734
 1873WAT      O 5829   2.859   2.228   5.475 -0.4816  0.1565  0.4981
 1873WAT     H1 5830   2.887   2.235   5.567  0.2203  0.4277  0.2701
 1873WAT     H2 5831   2.785   2.167   5.477  1.7242 -2.7035  0.7969
 1874WAT      O 5832   1.987   0.893   3.932  0.0984  0.1529  0.1877
 1874WAT     H1 5833   2.000   0.822   3.995 -1.0298  0.2259  0.5278
 1874WAT     H2 5834   2.053   0.877   3.865  0.6208 -0.5466  0.8417
 1875WAT      O 5835   3.942   0.102   0.859 -0.4941 -0.3847  0.4439
 1875WAT     H1 5836   3.939   0.180   0.804  2.9737 -0.6690 -0.4042
 1875WAT     H2 5837   3.865   0.052   0.833 -1.2322  1.4290 -1.1107
 1876WAT      O 5838   1.407   3.986   3.805  0.3059  0.1667 -0.0385
 1876WAT     H1 5839   1.361   3.904   3.823  1.7872 -0.9706 -1.2720
 1876WAT     H2 5840   1.493   3.960   3.774  0.4953  2.1667 -1.4015
 1877WAT      O 5841   4.530   1.120   1.574  0.0700 -0.3169  0.4335
 1877WAT     H1 5842   4.542   1.188   1.640 -2.7879  0.7913 -0.0698
 1877WAT     H2 5843   4.597   1.139   1.508  0.9535  0.4405  1.5125
 1878WAT      O 5844   1.433   2.076   3.858 -0.2048  0.2672  0.1275
 1878WAT     H1 5845   1.496   2.117   3.798 -1.3842  1.6232 -0.2298
 1878WAT     H2 5846   1.408   1.994   3.815  0.3220  0.3518 -0.3490
 1879WAT      O 5847   3.270   4.540   4.826  0.4899 -1.1398  0.3167
 1879WAT     H1 5848   3.278   4.599   4.901 -1.4349  0.3736 -0.5704
 1879WAT     H2 5849   3.308   4.589   4.753 -3.0807  0.1400 -0.9105
 1880WAT      O 5850   3.887   3.691   1.803 -0.4428 -0.0201 -0.0069
 1880WAT     H1 5851   3.939   3.691   1.884 -2.1770  2.2030  1.2471
 1880WAT     H2 5852   3.865   3.599   1.789 -0.0983 -0.4881  2.0981
 1881WAT      O 5853   4.804   1.377   4.197 -0.5438 -0.3254 -0.2432
 1881WAT     H1 5854   4.822   1.467   4.223 -0.1259 -0.5358  0.2076
 1881WAT     H2 5855   4.889   1.333   4.202  0.0125  0.0104 -3.6815
 1882WAT      O 5856   3.344   1.080   4.641  0.1510  0.2155 -0.2923
 1882WAT     H1 5857   3.422   1.111   4.595 -0.0068 -1.2090 -1.6195
 1882WAT     H2 5858   3.285   1.155   4.642  0.5468  0.5738 -1.5839
 1883WAT      O 5859   2.088   3.997   5.307 -0.0247  0.2634  0.2054
 1883WAT     H1 5860   2.033   4.003   5.385 -2.7299  2.3610 -1.6656
 1883WAT     H2 5861   2.119   3.906   5.306 -0.8467 -0.1400  3.0196
 1884WAT      O 5862   3.611   3.054   5.007  0.1110  0.3585  0.1842
 1884WAT     H1 5863   3.658   3.137   5.015  1.5433 -0.2344 -1.4023
 1884WAT     H2 5864   3.617   3.031   4.914 -0.1118 -1.5810  0.5950
 1885WAT      O 5865   2.012   5.284   3.912  0.0218  0.3442 -0.1679
 1885WAT     H1 5866   1.943   5.252   3.853 -0.6540  1.5479 -0.0621
 1885WAT     H2 5867   2.093   5.253   3.872 -0.5549 -1.2305 -0.2215
 1886WAT      O 5868   3.951   4.670   3.304  0.0464  0.2594 -0.2897
 1886WAT     H1 5869   3.918   4.757   3.326  0.7090  0.9330 -1.7942
 1886WAT     H2 5870   3.979   4.678   3.213  1.3954 -1.1476 -0.0365
 1887WAT      O 5871   3.586   2.368   2.097  0.3126  0.2578 -0.2871
 1887WAT     H1 5872   3.510   2.345   2.150  0.2380  0.9093 -0.1050
 1887WAT     H2 5873   3.661   2.356   2.155  0.6747 -3.1157 -1.2531
 1888WAT      O 5874   0.684   2.210   5.280  0.2024 -0.0123 -0.7681
 1888WAT     H1 5875   0.689   2.228   5.374 -0.0701  0.0545 -0.7655
 1888WAT     H2 5876   0.639   2.285   5.243 -0.8024 -0.5967 -0.7760
 1889WAT      O 5877   2.683   2.460   4.818 -0.4900  0.0368 -0.3898
 1889WAT     H1 5878   2.667   2.552   4.798 -0.4692 -0.0813 -0.9422
 1889WAT     H2 5879   2.612   2.413   4.773 -0.6444 -0.1998  0.0912
 1890WAT      O 5880   3.769   3.640   0.786  0.1344  0.1507 -0.2889
 1890WAT     H1 5881   3.861   3.660   0.799  0.3021 -0.4694 -0.4917
 1890WAT     H2 5882   3.729   3.724   0.765  0.7925  0.2981 -0.9740
 1891WAT      O 5883   0.982   1.427   0.375 -0.1336  0.0072 -0.1134
 1891WAT     H1 5884   0.935   1.481   0.310  0.7415  1.1548  0.1859
 1891WAT     H2 5885   1.048   1.485   0.411  0.9095 -1.3082  0.1696
 1892WAT      O 5886   4.180   2.610   0.494 -0.7161 -0.8737 -0.5111
 1892WAT     H1 5887   4.169   2.645   0.583 -3.1142 -1.5413 -0.4620
 1892WAT     H2 5888   4.129   2.670   0.439 -0.1973 -1.1211 -1.2710
 1893WAT      O 5889   2.646   5.236   0.946  0.5637 -0.4243 -0.0178
 1893WAT     H1 5890   2.626   5.325   0.919  1.9429  0.0775  0.4918
 1893WAT     H2 5891   2.697   5.246   1.026  0.5721 -1.6823  0.1651
 1894WAT      O 5892   3.933   2.798   0.388 -0.5157 -0.1015 -0.3846
 1894WAT     H1 5893   3.941   2.891   0.407 -1.0349 -0.4853  1.9738
 1894WAT     H2 5894   3.887   2.794   0.304 -1.5951  1.7554  0.0766
 1895WAT      O 5895   4.616   3.943   5.287 -0.0374 -0.1389 -0.5232
 1895WAT     H1 5896   4.569   3.984   5.359  0.5512 -0.2768 -0.0562
 1895WAT     H2 5897   4.657   3.866   5.326  1.6903  0.6984 -0.5908
 1896WAT      O 5898   3.456   3.725   2.718 -0.1051 -0.8790 -0.3232
 1896WAT     H1 5899   3.430   3.648   2.768 -0.1309 -0.5529  0.1786
 1896WAT     H2 5900   3.552   3.720   2.713 -0.0362 -0.4943  0.4650
 1897WAT      O 5901   3.242   4.531   5.269  0.1272  0.3240  0.3623
 1897WAT     H1 5902   3.284   4.497   5.348  0.8214 -0.1210 -0.1868
 1897WAT     H2 5903   3.310   4.583   5.226 -0.0118 -0.0366 -0.3111
 1898WAT      O 5904   3.300   1.809   3.432  0.4454  0.3484  0.5886
 1898WAT     H1 5905   3.327   1.855   3.511 -0.7712  1.3812  0.4261
 1898WAT     H2 5906   3.290   1.718   3.460  0.3447  0.6438  1.5385
 1899WAT      O 5907   2.865   1.651   3.888 -0.0662  0.1796 -0.4752
 1899WAT     H1 5908   2.797   1.618   3.946  0.6137 -0.2589  0.0888
 1899WAT     H2 5909   2.866   1.746   3.904  0.1825  0.0546  0.3145
 1900WAT      O 5910   1.865   2.461   1.216 -0.4282  0.1080  0.0296
 1900WAT     H1 5911   1.842   2.420   1.299 -0.7428  0.3615  0.0678
 1900WAT     H2 5912   1.932   2.526   1.240 -1.0655  0.7134  0.2015
 1901WAT      O 5913   2.777   2.179   1.286  0.4112 -0.1479  0.1058
 1901WAT     H1 5914   2.748   2.088   1.287 -1.9436  0.5485  0.5729
 1901WAT     H2 5915   2.730   2.220   1.359  1.8659  1.3422  0.2733
 1902WAT      O 5916   2.549   1.475   4.433 -0.2881  0.1302 -0.6890
 1902WAT     H1 5917   2.521   1.450   4.521 -0.8875  3.2652  0.1538
 1902WAT     H2 5918   2.645   1.480   4.439 -0.0724 -2.2685 -1.0892
 1903WAT      O 5919   3.261   0.459   3.881 -0.0441  0.1986  0.0196
 1903WAT     H1 5920   3.337   0.507   3.848 -0.4961 -0.0939 -1.5138
 1903WAT     H2 5921   3.223   0.518   3.947  0.5672  1.0611 -0.3764
 1904WAT      O 5922   2.539   4.727   4.651 -0.6357  0.5637 -0.2115
 1904WAT     H1 5923   2.570   4.643   4.617  1.8406  1.7354 -1.0387
 1904WAT     H2 5924   2.567   4.726   4.743  1.3157  1.2654 -0.7412
 1905WAT      O 5925   2.406   3.126   0.371  0.0562  0.4887 -0.0999
 1905WAT     H1 5926   2.344   3.191   0.403  1.2274  1.4599  0.2773
 1905WAT     H2 5927   2.466   3.175   0.314  0.7076 -0.3428 -0.1599
 1906WAT      O 5928   2.895   4.965   3.456  0.1734  0.1104  0.5598
 1906WAT     H1 5929   2.947   4.990   3.380  0.5285  0.1051  0.7953
 1906WAT     H2 5930   2.896   4.869   3.455  3.4453 -0.0608  2.6744
 1907WAT      O 5931   1.073   4.221   3.183 -0.4824  0.6889  0.6217
 1907WAT     H1 5932   1.149   4.193   3.234 -1.0986 -0.6031  0.8833
 1907WAT     H2 5933   1.024   4.278   3.242  0.1440  1.3170  0.5418
 1908WAT      O 5934   2.912   2.016   2.493 -0.1636 -0.3176 -0.3889
 1908WAT     H1 5935   2.881   1.926   2.482 -0.1769 -0.3690  0.0648
 1908WAT     H2 5936   2.876   2.063   2.418 -0.9518 -0.4797 -0.1207
 1909WAT      O 5937   2.292   4.646   4.710  0.0621  0.2470  0.3737
 1909WAT     H1 5938   2.278   4.737   4.736  0.5335  0.5881 -0.5354
 1909WAT     H2 5939   2.378   4.646   4.667 -0.2154 -0.5088 -0.1995
 1910WAT      O 5940   3.920   1.886   2.005 -0.4282 -0.4840  0.0844
 1910WAT     H1 5941   3.904   1.795   2.032 -1.3877 -0.7900 -1.3443
 1910WAT     H2 5942   3.832   1.924   2.002  0.0390  0.7739  1.5059
 1911WAT      O 5943   1.123   2.048   0.728 -0.2171  0.1246 -0.5598
 1911WAT     H1 5944   1.077   2.006   0.801 -0.9261 -1.4202 -1.8213
 1911WAT     H2 5945   1.057   2.053   0.658  0.8898 -0.0386 -1.6479
 1912WAT      O 5946   4.216   4.275   4.763 -0.2949 -0.1380 -0.4298
 1912WAT     H1 5947   4.135   4.271   4.813 -0.2824  0.7554 -0.3156
 1912WAT     H2 5948   4.228   4.368   4.744  1.5935 -0.0070  1.0515
 1913WAT      O 5949   1.457   3.300   0.171  0.0721 -0.0528  0.3426
 1913WAT     H1 5950   1.374   3.323   0.130  1.1533  1.5631 -1.0531
 1913WAT     H2 5951   1.499   3.240   0.110  0.4457  0.0974  0.4434
 1914WAT      O 5952   3.401   3.813   0.134 -0.0181 -0.2098  0.4712
 1914WAT     H1 5953   3.380   3.907   0.129  3.0958  0.6757  1.3702
 1914WAT     H2 5954   3.400   3.794   0.228 -0.0671 -0.9140  0.3294
 1915WAT      O 5955   2.110   5.040   0.316  0.6110  0.0956 -0.0521
 1915WAT     H1 5956   2.178   5.084   0.264  1.1909 -1.3241 -0.5523
 1915WAT     H2 5957   2.146   5.038   0.405  1.7774 -1.6037 -0.5083
 1916WAT      O 5958   0.582   2.128   0.654 -0.7213  0.4084 -0.0711
 1916WAT     H1 5959   0.574   2.195   0.586 -4.1188  3.3672  2.8766
 1916WAT     H2 5960   0.532   2.162   0.728 -1.8471 -5.0134  2.1042
 1917WAT      O 5961   3.440   3.172   0.754 -0.0882  0.4700  0.2134
 1917WAT     H1 5962   3.426   3.082   0.723  0.1055  0.1759  0.9616
 1917WAT     H2 5963   3.363   3.220   0.723 -0.3361 -0.0181  0.0597
 1918WAT      O 5964   4.851   3.213   4.101 -0.3176  0.5725  0.2867
 1918WAT     H1 5965   4.842   3.122   4.129  1.5308  0.2050 -0.1629
 1918WAT     H2 5966   4.805   3.263   4.168 -1.1459 -0.6670  0.6787
 1919WAT      O 5967   0.260   4.121   0.751  0.1093 -0.4835  0.3136
 1919WAT     H1 5968   0.294   4.056   0.812 -0.2811 -0.6233  0.3850
 1919WAT     H2 5969   0.202   4.175   0.804 -0.7207 -0.9867 -0.0582
 1920WAT      O 5970   4.541   2.738   3.326  0.6796  0.7064  0.4553
 1920WAT     H1 5971   4.454   2.775   3.342  0.3901  0.3614 -0.2659
 1920WAT     H2 5972   4.534   2.647   3.354  1.6874  1.3827  3.1886
 1921WAT      O 5973   3.831   2.197   2.987 -0.0001 -0.0909  0.5101
 1921WAT     H1 5974   3.870   2.190   3.074  0.3874  0.3876  0.3840
 1921WAT     H2 5975   3.885   2.262   2.942  0.9705 -1.6999 -0.7333
 1922WAT      O 5976   1.711   3.758   0.540 -0.5117  0.3613 -0.3471
 1922WAT     H1 5977   1.619   3.773   0.516 -0.5688 -1.8675 -1.8767
 1922WAT     H2 5978   1.714   3.666   0.567  0.9447  0.9296  1.6367
 1923WAT      O 5979   3.092   3.037   5.234  0.4857  0.3662 -0.0378
 1923WAT     H1 5980   3.168   3.072   5.188 -0.6484  0.6268 -1.7829
 1923WAT     H2 5981   3.038   2.998   5.166 -0.3641 -0.9447  1.3243
 1924WAT      O 5982   4.285   1.900   4.117  0.5759  0.5260 -0.3607
 1924WAT     H1 5983   4.215   1.953   4.078 -0.8301 -0.6919  0.3625
 1924WAT     H2 5984   4.300   1.940   4.203 -0.5254 -0.2078  0.2090
 1925WAT      O 5985   2.698   0.460   5.251  0.0752 -0.3897  0.3659
 1925WAT     H1 5986   2.603   0.463   5.251  0.0437  0.7650  2.8575
 1925WAT     H2 5987   2.719   0.367   5.258 -0.8336 -0.6749 -0.4703
 1926WAT      O 5988   3.565   1.646   4.412 -0.1502 -0.0873 -0.2000
 1926WAT     H1 5989   3.656   1.614   4.415 -0.3082 -0.5331 -0.0785
 1926WAT     H2 5990   3.572   1.740   4.426  0.1615 -0.3353  1.5045
 1927WAT      O 5991   2.743   0.519   4.493  0.4065 -0.6759  0.3386
 1927WAT     H1 5992   2.769   0.611   4.490  1.6469 -0.9471  1.4999
 1927WAT     H2 5993   2.794   0.482   4.566 -0.2272 -2.2304  0.0438
 1928WAT      O 5994   1.273   1.326   4.021  0.4451 -0.0728  0.2906
 1928WAT     H1 5995   1.314   1.240   4.017 -1.1426 -0.9674  1.8167
 1928WAT     H2 5996   1.201   1.321   3.958  1.1662  0.6420 -0.6157
 1929WAT      O 5997   2.589   4.476   4.256 -0.0012  0.5425 -0.8539
 1929WAT     H1 5998   2.676   4.477   4.218  0.6528 -0.9125  0.5018
 1929WAT     H2 5999   2.603   4.491   4.350 -1.3212  1.4815 -0.7807
 1930WAT      O 6000   1.849   3.319   4.753 -0.3691  0.4220  0.3862
 1930WAT     H1 6001   1.940   3.319   4.724  0.3720 -0.1518  2.5069
 1930WAT     H2 6002   1.837   3.403   4.796 -1.0838  0.7987 -0.5269
 1931WAT      O 6003   3.294   2.159   5.711 -0.2638 -0.7368  0.5590
 1931WAT     H1 6004   3.364   2.103   5.677 -0.8060 -1.4001  0.5097
 1931WAT     H2 6005   3.305   2.241   5.664 -0.1200 -1.1652 -0.1839
 1932WAT      O 6006   2.746   1.107   5.635  0.0417 -0.9837 -0.1859
 1932WAT     H1 6007   2.688   1.110   5.559  2.4125 -1.8163 -2.1380
 1932WAT     H2 6008   2.708   1.041   5.692 -0.9757 -1.4443 -1.3634
 1933WAT      O 6009   3.618   3.054   0.252  0.6098 -0.2842  0.7453
 1933WAT     H1 6010   3.551   3.116   0.281  0.5204 -0.8026  1.6965
 1933WAT     H2 6011   3.694   3.075   0.306  1.1503  0.1150 -0.1350
 1934WAT      O 6012   4.833   4.316   2.587  0.5815 -0.0631 -0.0853
 1934WAT     H1 6013   4.863   4.339   2.500 -0.0162 -0.6736 -0.4635
 1934WAT     H2 6014   4.905   4.340   2.645  0.8394  0.6799 -0.7020
 1935WAT      O 6015   4.259   4.253   4.430 -0.0507 -0.2629  0.0253
 1935WAT     H1 6016   4.183   4.279   4.378  1.5098  0.1252 -2.1521
 1935WAT     H2 6017   4.222   4.228   4.515 -2.5244  0.5615 -0.7345
 1936WAT      O 6018   2.588   2.206   2.522 -0.9902 -0.0556 -0.0586
 1936WAT     H1 6019   2.652   2.268   2.557 -2.0429  1.4125 -0.5940
 1936WAT     H2 6020   2.617   2.188   2.433 -2.1591  2.0063 -0.9489
 1937WAT      O 6021   4.406   2.104   3.485 -0.2760  0.0463 -0.2506
 1937WAT     H1 6022   4.466   2.166   3.527  1.3415 -0.7148 -1.3262
 1937WAT     H2 6023   4.402   2.132   3.394 -2.1618  0.4927 -0.0573
 1938WAT      O 6024   1.599   4.625   1.198 -0.7620 -0.0972  0.4167
 1938WAT     H1 6025   1.623   4.625   1.290 -1.3163 -1.8852  0.5832
 1938WAT     H2 6026   1.522   4.682   1.193 -0.3974  0.4521  0.9427
 1939WAT      O 6027   2.481   3.653   4.980 -0.3312  0.6944 -0.1514
 1939WAT     H1 6028   2.479   3.726   5.042 -1.7513  0.0916  0.5820
 1939WAT     H2 6029   2.534   3.684   4.907  4.5149  0.2404  2.7567
 1940WAT      O 6030   2.967   4.446   3.247  0.6298  0.0085  0.1535
 1940WAT     H1 6031   2.958   4.355   3.219  1.2198 -0.0691  0.1900
 1940WAT     H2 6032   2.887   4.489   3.218 -0.4362 -0.8939  1.6144
 1941WAT      O 6033   2.375   0.493   2.260 -0.8983  0.1335  0.0468
 1941WAT     H1 6034   2.424   0.445   2.327 -1.8248 -0.6911  0.1579
 1941WAT     H2 6035   2.333   0.564   2.309  0.4649  1.0864 -0.1152
 1942WAT      O 6036   1.708   1.967   3.630  0.0037  0.2588 -0.5432
 1942WAT     H1 6037   1.733   2.055   3.660  2.6450 -0.2191 -1.1072
 1942WAT     H2 6038   1.694   1.977   3.536 -2.4151  0.5567 -0.2143
 1943WAT      O 6039   1.352   3.007   2.747  0.7595  0.4258 -0.3104
 1943WAT     H1 6040   1.286   2.962   2.799 -1.4765  3.5199 -0.1808
 1943WAT     H2 6041   1.334   2.979   2.657  0.3707 -0.0357 -0.0914
 1944WAT      O 6042   2.631   3.121   2.261  0.1786  0.5875  0.1921
 1944WAT     H1 6043   2.539   3.095   2.254 -0.1146  1.0340  1.9889
 1944WAT     H2 6044   2.630   3.217   2.256  0.7556  0.5453 -1.4645
 1945WAT      O 6045   0.881   2.791   2.928  0.1072 -0.1317  0.0052
 1945WAT     H1 6046   0.790   2.763   2.918 -0.2351  1.0587 -0.3722
 1945WAT     H2 6047   0.907   2.759   3.015 -0.8186 -0.0862  0.3030
 1946WAT      O 6048   4.025   2.870   3.232 -0.1107  0.0510  0.2369
 1946WAT     H1 6049   4.012   2.927   3.156  0.0734  1.9237  1.5522
 1946WAT     H2 6050   3.952   2.809   3.228 -0.6181  0.6945 -0.9462
 1947WAT      O 6051   2.293   3.509   4.721  0.4661  0.6749 -0.3430
 1947WAT     H1 6052   2.367   3.535   4.775 -1.6876  3.5243  1.5972
 1947WAT     H2 6053   2.290   3.575   4.651 -0.6405  1.1001  0.0758
 1948WAT      O 6054   4.002   4.491   2.990 -0.2740  0.7441 -0.4395
 1948WAT     H1 6055   3.908   4.477   2.987 -0.0993 -0.4014 -1.1644
 1948WAT     H2 6056   4.027   4.508   2.899  0.3689 -0.0611 -0.4192
 1949WAT      O 6057   0.660   2.703   2.748  0.0682 -0.3742  0.0542
 1949WAT     H1 6058   0.628   2.615   2.727 -0.2105 -0.7101  1.7309
 1949WAT     H2 6059   0.704   2.732   2.668 -0.1868 -1.8671 -0.6697
 1950WAT      O 6060   2.050   3.212   5.129  0.5248  0.5640  0.5689
 1950WAT     H1 6061   1.973   3.267   5.115  0.4520 -0.0222 -1.7922
 1950WAT     H2 6062   2.016   3.133   5.171 -0.6271 -0.5728 -2.2605
 1951WAT      O 6063   2.389   0.686   2.869  0.3885  0.2264  0.5865
 1951WAT     H1 6064   2.453   0.734   2.922 -0.8639 -0.5631  2.9435
 1951WAT     H2 6065   2.307   0.735   2.881  0.0498 -0.0398 -0.5554
 1952WAT      O 6066   4.234   3.986   2.994 -0.0184  0.0505 -0.0265
 1952WAT     H1 6067   4.151   3.942   3.013  0.7124 -1.2079  0.4037
 1952WAT     H2 6068   4.273   3.934   2.924  0.5458  0.4287  0.0053
 1953WAT      O 6069   3.264   3.394   4.523 -0.9637  0.0956 -0.5284
 1953WAT     H1 6070   3.193   3.336   4.549  0.7655 -1.1141  1.8261
 1953WAT     H2 6071   3.295   3.358   4.440 -2.3576  0.0038 -1.0318
 1954WAT      O 6072   4.032   0.438   0.936 -0.1152  0.0146 -0.3875
 1954WAT     H1 6073   4.007   0.414   0.846 -0.9042  2.2372 -0.8308
 1954WAT     H2 6074   4.078   0.362   0.969 -1.1080 -1.4459 -2.1682
 1955WAT      O 6075   1.666   1.738   3.270  0.3588 -0.2827  0.8897
 1955WAT     H1 6076   1.707   1.825   3.275 -1.9571  1.0290 -0.8642
 1955WAT     H2 6077   1.739   1.677   3.278  2.4333  1.8647 -0.2545
 1956WAT      O 6078   2.241   3.309   2.610 -0.6174 -0.0283 -0.6628
 1956WAT     H1 6079   2.169   3.247   2.620  0.6189 -1.1611  2.1218
 1956WAT     H2 6080   2.204   3.393   2.636 -1.5195 -0.1264 -1.5719
 1957WAT      O 6081   2.885   1.101   2.975 -0.0880 -0.1107 -0.0130
 1957WAT     H1 6082   2.865   1.011   2.950 -0.4274  0.5568 -2.4692
 1957WAT     H2 6083   2.804   1.149   2.959  0.1295  0.6878  1.1181
 1958WAT      O 6084   1.171   1.676   4.229 -0.4642 -0.4769  0.0760
 1958WAT     H1 6085   1.094   1.728   4.204 -0.4044 -0.7014 -0.5919
 1958WAT     H2 6086   1.134   1.598   4.270 -0.7869 -2.0487 -2.8832
 1959WAT      O 6087   2.952   3.939   2.572 -0.4018 -0.5535  0.2322
 1959WAT     H1 6088   3.040   3.951   2.607 -0.4895 -0.3904  0.3931
 1959WAT     H2 6089   2.932   3.846   2.588 -0.3790 -0.5175  0.4638
 1960WAT      O 6090   2.039   1.513   1.712  0.0566 -0.2224 -0.4952
 1960WAT     H1 6091   2.106   1.534   1.647 -1.6540  2.2608 -1.6038
 1960WAT     H2 6092   2.085   1.464   1.779  2.6061 -0.0548 -2.0137
 1961WAT      O 6093   1.896   5.254   2.654 -0.1142  0.4309 -0.1279
 1961WAT     H1 6094   1.987   5.228   2.640 -0.3126  0.6301 -1.9266
 1961WAT     H2 6095   1.851   5.173   2.680  0.1744 -0.0916 -1.2400
 1962WAT      O 6096   3.682   2.086   0.528 -0.2290  1.0110 -0.2755
 1962WAT     H1 6097   3.734   2.145   0.474  2.8310 -1.3922 -0.2134
 1962WAT     H2 6098   3.712   2.103   0.617  1.6096 -1.2864 -0.3607
 1963WAT      O 6099   2.006   3.559   4.641  0.2049  0.1815  0.1495
 1963WAT     H1 6100   2.001   3.644   4.683 -2.3411  0.2500 -0.1285
 1963WAT     H2 6101   2.098   3.532   4.650  0.5700  1.9255  2.1933
 1964WAT      O 6102   2.865   4.905   3.849 -0.1198  0.8961  0.1279
 1964WAT     H1 6103   2.920   4.879   3.775  0.2385  0.1810  0.6349
 1964WAT     H2 6104   2.863   5.001   3.844 -2.5925  0.8573 -2.5980
 1965WAT      O 6105   3.918   2.462   0.005 -0.1773 -0.2766  0.0960
 1965WAT     H1 6106   3.898   2.419   0.088 -1.0376  2.1457  1.2357
 1965WAT     H2 6107   3.987   2.524   0.026  0.6951 -0.6967 -1.3834
 1966WAT      O 6108   2.411   1.342   3.068 -0.0126  0.6094 -0.0913
 1966WAT     H1 6109   2.418   1.414   3.129 -1.2368 -0.4112  1.3321
 1966WAT     H2 6110   2.355   1.375   2.997 -0.9725  0.9305  0.7951
 1967WAT      O 6111   4.614   2.456   4.708  0.6667  0.2942 -0.5245
 1967WAT     H1 6112   4.525   2.421   4.708  1.0857 -0.9292  1.1272
 1967WAT     H2 6113   4.621   2.502   4.792  1.7536 -0.0692 -0.4057
 1968WAT      O 6114   0.403   3.660   4.392 -0.2669  0.0209  0.3634
 1968WAT     H1 6115   0.389   3.583   4.447 -0.7025 -0.4026 -0.3242
 1968WAT     H2 6116   0.318   3.704   4.390 -0.1778  0.1900  0.2645
 1969WAT      O 6117   1.992   2.412   4.303  0.5586  0.5580  0.4233
 1969WAT     H1 6118   1.936   2.469   4.250 -1.0568 -0.1463  1.2682
 1969WAT     H2 6119   1.977   2.442   4.393  1.3953  0.2165  0.6803
 1970WAT      O 6120   0.557   3.370   3.219 -0.1522  0.0971 -0.0743
 1970WAT     H1 6121   0.466   3.397   3.232  0.2052  1.5033 -0.3482
 1970WAT     H2 6122   0.555   3.320   3.137 -0.6419  0.2763 -0.1762
 1971WAT      O 6123   2.320   4.453   1.789 -0.2216 -0.1087  0.0266
 1971WAT     H1 6124   2.319   4.357   1.789 -0.0601 -0.1221  1.1080
 1971WAT     H2 6125   2.240   4.477   1.836 -0.2419  0.2896 -0.2129
 1972WAT      O 6126   2.659   5.045   3.569 -0.2138 -0.7610 -0.0632
 1972WAT     H1 6127   2.746   5.009   3.553 -0.6530 -1.9546  0.1218
 1972WAT     H2 6128   2.608   5.022   3.491 -0.6422 -1.0188  0.2832
 1973WAT      O 6129   3.211   2.321   3.443  0.5862 -0.2102 -0.2683
 1973WAT     H1 6130   3.152   2.269   3.389  1.2194  0.4372 -1.6347
 1973WAT     H2 6131   3.294   2.322   3.394  1.0892  0.6575  0.5544
 1974WAT      O 6132   3.603   1.210   3.797  0.3055 -0.4687 -0.1102
 1974WAT     H1 6133   3.584   1.188   3.888  1.7576  0.9205  0.5804
 1974WAT     H2 6134   3.663   1.284   3.803  0.3448 -0.2840 -2.2145
 1975WAT      O 6135   1.148   1.684   1.061 -0.2239 -0.0649 -0.7953
 1975WAT     H1 6136   1.151   1.772   1.099 -0.8546  0.1367 -1.1953
 1975WAT     H2 6137   1.075   1.641   1.106 -0.5078 -0.0698 -1.2613
 1976WAT      O 6138   1.279   1.721   2.716 -0.3689 -0.2274  0.1372
 1976WAT     H1 6139   1.224   1.785   2.761 -0.1724  0.2527 -0.2902
 1976WAT     H2 6140   1.306   1.766   2.635  0.3726 -0.5818  0.1818
 1977WAT      O 6141   4.195   4.555   5.373 -0.7355 -0.0015 -0.0740
 1977WAT     H1 6142   4.174   4.532   5.464 -0.4331  1.3970  0.3763
 1977WAT     H2 6143   4.202   4.651   5.374  1.0490 -0.0780 -1.1969
 1978WAT      O 6144   2.573   1.136   3.004 -0.1431  0.0433  0.0779
 1978WAT     H1 6145   2.525   1.208   3.046 -0.6786 -1.7850  2.9072
 1978WAT     H2 6146   2.540   1.134   2.914 -1.4605  2.1433  0.4556
 1979WAT      O 6147   1.501   4.291   5.321 -0.6205  0.0373 -0.5129
 1979WAT     H1 6148   1.470   4.265   5.407 -1.7618  1.2295 -0.5354
 1979WAT     H2 6149   1.435   4.258   5.260  0.5359 -1.4379 -1.0545
 1980WAT      O 6150   3.420   2.888   0.723  0.3905 -0.1310  0.1644
 1980WAT     H1 6151   3.448   2.796   0.725 -1.4754 -0.7757 -0.7807
 1980WAT     H2 6152   3.339   2.887   0.671  1.0245  2.2568 -1.0035
 1981WAT      O 6153   4.004   2.580   3.383  0.0987  0.3080 -0.0973
 1981WAT     H1 6154   3.935   2.630   3.339  0.1400 -0.7940 -1.4918
 1981WAT     H2 6155   4.054   2.541   3.312 -0.3849 -2.2944  0.8883
 1982WAT      O 6156   0.543   1.134   3.315 -0.1555  0.2259  0.3172
 1982WAT     H1 6157   0.536   1.213   3.261 -1.0695 -0.6139 -0.8499
 1982WAT     H2 6158   0.633   1.104   3.302 -0.5878 -0.4200 -1.4668
 1983WAT      O 6159   1.647   4.571   2.901  0.0429 -0.2351 -0.4270
 1983WAT     H1 6160   1.695   4.619   2.969  0.0157 -0.2218 -0.4173
 1983WAT     H2 6161   1.555   4.582   2.924  0.0539 -0.6225 -0.2043
 1984WAT      O 6162   0.749   3.596   4.045  0.4988  0.1283  0.1697
 1984WAT     H1 6163   0.712   3.633   3.965 -2.5327  1.1721  1.9071
 1984WAT     H2 6164   0.803   3.666   4.082  1.4008 -0.1464 -0.5637
 1985WAT      O 6165   1.901   0.813   3.583  0.3374 -0.0610  0.0924
 1985WAT     H1 6166   1.879   0.724   3.558  2.6097 -0.1008 -2.1636
 1985WAT     H2 6167   1.959   0.804   3.659  1.2725 -0.6122 -0.6634
 1986WAT      O 6168   1.706   3.188   1.354  0.2132  0.2611 -0.2377
 1986WAT     H1 6169   1.748   3.175   1.439 -3.1857  0.7469  1.7210
 1986WAT     H2 6170   1.618   3.151   1.365 -1.2278  2.5642 -2.6849
 1987WAT      O 6171   3.984   4.070   4.913 -0.0124  0.4119 -0.0042
 1987WAT     H1 6172   4.053   4.022   4.867  1.5884  1.9373  0.6453
 1987WAT     H2 6173   3.919   4.004   4.937  2.0138 -1.4089  0.7743
 1988WAT      O 6174   1.189   3.632   5.004 -0.4018 -0.1077 -0.0089
 1988WAT     H1 6175   1.275   3.606   4.971  0.6341  0.9125  1.7350
 1988WAT     H2 6176   1.141   3.550   5.015  0.1595 -0.6570 -1.4053
 1989WAT      O 6177   4.212   4.031   4.222  0.5601 -0.4013  0.1577
 1989WAT     H1 6178   4.160   4.108   4.245  0.2483 -0.2305 -1.0403
 1989WAT     H2 6179   4.248   4.000   4.305 -0.4046  0.2449  0.8294
 1990WAT      O 6180   4.415   4.248   3.231  0.5697  0.2841  0.5284
 1990WAT     H1 6181   4.324   4.260   3.205  0.3363 -0.1380  1.1506
 1990WAT     H2 6182   4.423   4.297   3.313  0.9041  0.3155  0.4783
 1991WAT      O 6183   3.417   1.687   3.721 -0.3654  0.1774  0.0247
 1991WAT     H1 6184   3.328   1.695   3.756 -0.1850 -1.3211  0.9105
 1991WAT     H2 6185   3.415   1.606   3.670  0.8829 -0.7797  1.4058
 1992WAT      O 6186   2.410   2.889   0.257  0.1757 -0.1437 -0.1230
 1992WAT     H1 6187   2.402   2.973   0.304  0.3906 -0.7650  1.0583
 1992WAT     H2 6188   2.395   2.912   0.165 -1.4685  0.9285  0.3668
 1993WAT      O 6189   3.637   2.180   2.774  0.6837 -0.4998 -0.5405
 1993WAT     H1 6190   3.695   2.218   2.839  0.8132 -0.2661 -0.7886
 1993WAT     H2 6191   3.638   2.086   2.792  0.5800 -0.4169 -0.1001
 1994WAT      O 6192   1.070   1.411   4.347  0.3193  0.0637 -0.0908
 1994WAT     H1 6193   1.150   1.361   4.333  1.6072  2.0499 -0.2144
 1994WAT     H2 6194   1.000   1.354   4.316  1.7389 -1.4627 -0.6129
 1995WAT      O 6195   2.384   0.443   3.018 -0.3847  0.1949  0.1709
 1995WAT     H1 6196   2.319   0.466   2.952 -0.6230 -1.7147 -0.3295
 1995WAT     H2 6197   2.468   0.456   2.974 -0.5383 -0.8277 -0.4524
 1996WAT      O 6198   0.005   1.880   5.123 -0.0738  0.1419  0.3332
 1996WAT     H1 6199   0.034   1.935   5.196  1.2794  0.4059 -0.3599
 1996WAT     H2 6200  -0.087   1.904   5.110  0.5777  2.6681 -0.2440
 1997WAT      O 6201   3.175   1.906   2.537 -0.2194  0.0770 -0.3990
 1997WAT     H1 6202   3.190   1.848   2.462 -1.1511  0.0380 -0.5569
 1997WAT     H2 6203   3.084   1.933   2.529  0.2529  1.7699 -0.4691
 1998WAT      O 6204   2.217   4.009   0.970 -0.3497 -0.2983  0.4509
 1998WAT     H1 6205   2.288   4.024   1.032 -1.2367 -0.7387  1.6195
 1998WAT     H2 6206   2.238   3.925   0.929  0.1924 -0.0486  0.1972
 1999WAT      O 6207   4.761   4.570   1.642 -0.5813 -0.7357  0.4396
 1999WAT     H1 6208   4.788   4.480   1.657  1.6586  0.0523  1.5258
 1999WAT     H2 6209   4.818   4.601   1.571 -0.0914  0.3210  1.2627
 2000WAT      O 6210   2.518   5.317   3.551  0.6145 -0.1813 -0.1735
 2000WAT     H1 6211   2.511   5.355   3.639  0.3981  0.7650 -0.5928
 2000WAT     H2 6212   2.541   5.225   3.567  2.4578  0.4008  0.8312
 2001WAT      O 6213   2.262   3.852   0.358 -0.3875  0.0760 -0.1680
 2001WAT     H1 6214   2.218   3.937   0.360 -0.1703  0.1734  1.4695
 2001WAT     H2 6215   2.284   3.838   0.265 -0.8647  1.5666 -0.5210
 2002WAT      O 6216   3.993   1.882   2.855 -0.4167  0.2372  0.1577
 2002WAT     H1 6217   3.908   1.875   2.899  0.0033 -0.3070  0.8898
 2002WAT     H2 6218   4.038   1.800   2.875  1.1646  1.4004  1.6207
 2003WAT      O 6219   2.318   3.398   4.290  0.2811 -0.3227  0.3035
 2003WAT     H1 6220   2.320   3.483   4.247  0.4597 -0.9822 -1.0384
 2003WAT     H2 6221   2.240   3.402   4.346  1.2549  1.3339  1.6245
 2004WAT      O 6222   0.821   2.529   3.825 -0.1168 -0.4901  0.4941
 2004WAT     H1 6223   0.878   2.588   3.875  0.9487 -1.2675  0.2369
 2004WAT     H2 6224   0.876   2.497   3.754 -0.7081 -1.6735  0.5411
 2005WAT      O 6225   0.784   3.247   2.771 -0.4289 -0.1575  0.0674
 2005WAT     H1 6226   0.862   3.277   2.725  0.1279 -0.8985  0.5059
 2005WAT     H2 6227   0.736   3.196   2.706 -0.1492 -0.3581  0.0142
 2006WAT      O 6228   1.307   2.045   3.505 -0.2654  0.6278 -0.5618
 2006WAT     H1 6229   1.364   1.973   3.477 -0.7142  0.6854 -1.6695
 2006WAT     H2 6230   1.368   2.112   3.537  0.1610 -0.1871  0.3776
 2007WAT      O 6231   4.787   1.411   3.892  0.0241  0.5826  0.4336
 2007WAT     H1 6232   4.737   1.382   3.969 -0.5777 -1.0784 -0.5385
 2007WAT     H2 6233   4.752   1.498   3.873 -1.9916 -0.2106  0.2708
 2008WAT      O 6234   3.698   2.161   4.482  0.4924  0.2123  0.0658
 2008WAT     H1 6235   3.624   2.215   4.509  1.3623  2.4213 -1.6915
 2008WAT     H2 6236   3.764   2.174   4.549  0.4366  0.7723  0.0123
 2009WAT      O 6237   2.418   3.889   4.108 -0.3582  0.2671 -0.0315
 2009WAT     H1 6238   2.448   3.954   4.172  0.0270 -0.8039  0.9147
 2009WAT     H2 6239   2.485   3.892   4.039 -0.1313  0.5915  0.1970
 2010WAT      O 6240   2.767   3.461   2.968  0.2737 -0.4714  0.9320
 2010WAT     H1 6241   2.676   3.464   2.939  0.2304 -0.3298  1.0838
 2010WAT     H2 6242   2.810   3.534   2.923  0.1466 -0.0876  1.4262
 2011WAT      O 6243   4.811   3.353   3.869  0.2714  0.7671 -0.7264
 2011WAT     H1 6244   4.838   3.319   3.954  0.2794  1.6453 -0.3724
 2011WAT     H2 6245   4.891   3.391   3.831 -0.0357  1.6807 -0.4871
 2012WAT      O 6246   1.990   3.036   2.284  0.1402  0.7065 -0.1275
 2012WAT     H1 6247   1.969   2.972   2.353  0.0534  0.0854 -0.7226
 2012WAT     H2 6248   2.001   2.983   2.205  1.1058  1.3305 -0.4196
 2013WAT      O 6249   0.826   3.669   0.962 -0.0715  0.0593 -0.3080
 2013WAT     H1 6250   0.844   3.579   0.936 -4.7029 -1.7635  1.8753
 2013WAT     H2 6251   0.751   3.695   0.909 -0.2108  1.8378  0.6766
 2014WAT      O 6252   2.522   2.721   1.532 -0.2713  0.1015 -0.0907
 2014WAT     H1 6253   2.479   2.636   1.530  0.4922 -0.3548  1.3158
 2014WAT     H2 6254   2.479   2.768   1.604  2.5229 -0.9717  2.4799
 2015WAT      O 6255   1.759   1.880   0.357 -0.0040 -0.0190 -0.6504
 2015WAT     H1 6256   1.753   1.915   0.445 -0.3760 -0.4211 -0.5112
 2015WAT     H2 6257   1.670   1.886   0.322  0.3216  1.0667 -1.3728
 2016WAT      O 6258   0.408   3.405   4.520 -0.1211 -0.0168  0.2648
 2016WAT     H1 6259   0.462   3.334   4.486 -0.7404  0.0196 -0.8310
 2016WAT     H2 6260   0.451   3.431   4.602 -0.1046 -1.9036  0.8943
 2017WAT      O 6261   4.618   3.147   1.791 -0.0685 -0.0074  0.0967
 2017WAT     H1 6262   4.565   3.225   1.807 -0.7201 -0.6985  1.5023
 2017WAT     H2 6263   4.603   3.126   1.699 -1.8014  0.1464  0.3121
 2018WAT      O 6264   0.950   3.442   3.023  0.3340 -0.5063  0.0188
 2018WAT     H1 6265   0.873   3.451   2.968 -0.3213 -1.2791  0.7666
 2018WAT     H2 6266   1.002   3.374   2.980  0.5775 -0.0276 -0.4529
 2019WAT      O 6267   1.208   1.742   1.774  0.1529 -0.2798  0.6721
 2019WAT     H1 6268   1.171   1.662   1.811 -0.0476 -0.8657 -0.7225
 2019WAT     H2 6269   1.176   1.743   1.683 -0.9746  2.0834  1.0075
 2020WAT      O 6270   1.541   3.058   2.191  0.5962 -0.2624 -0.2973
 2020WAT     H1 6271   1.572   3.102   2.111  2.3869 -1.5373 -0.3701
 2020WAT     H2 6272   1.449   3.039   2.173  0.9619 -0.5488 -2.1101
 2021WAT      O 6273   3.950   2.377   0.310 -0.3301  0.4891 -0.4067
 2021WAT     H1 6274   3.863   2.411   0.330 -0.9258  0.3337 -2.5514
 2021WAT     H2 6275   3.950   2.289   0.347  0.2655  1.6878  2.7805
 2022WAT      O 6276   1.097   3.637   4.228  0.2524  0.0683  0.2341
 2022WAT     H1 6277   1.089   3.586   4.308 -1.6377 -0.7805 -0.4397
 2022WAT     H2 6278   1.015   3.686   4.222 -0.5402 -1.3731 -2.1026
 2023WAT      O 6279   2.001   4.412   0.615 -0.2902  0.1628  0.3478
 2023WAT     H1 6280   2.015   4.495   0.570  1.3830 -0.4412 -0.3359
 2023WAT     H2 6281   1.958   4.435   0.697  0.8643  1.7985  0.5263
 2024WAT      O 6282   0.671   2.244   2.848 -0.1712  0.0253  0.3004
 2024WAT     H1 6283   0.747   2.295   2.875  0.4774  0.2510 -1.7907
 2024WAT     H2 6284   0.706   2.157   2.830 -0.6961 -0.2868  0.7631
 2025WAT      O 6285   1.357   1.818   3.760 -0.0579  0.5338 -0.9137
 2025WAT     H1 6286   1.357   1.804   3.665 -1.7305 -0.1878 -0.8459
 2025WAT     H2 6287   1.277   1.775   3.790  0.5870  0.5226  0.8691
 2026WAT      O 6288   2.388   2.742   1.859 -0.0304  0.0367 -0.4964
 2026WAT     H1 6289   2.313   2.718   1.805  1.6760 -1.5550 -2.3186
 2026WAT     H2 6290   2.411   2.662   1.906 -0.2582  0.8758  1.1390
 2027WAT      O 6291   3.231   4.542   0.800 -0.0468 -0.5697  0.5911
 2027WAT     H1 6292   3.239   4.447   0.800 -0.0900 -0.5776  0.9866
 2027WAT     H2 6293   3.143   4.559   0.834  0.3204 -0.3750  1.4943
 2028WAT      O 6294   0.276   3.927   3.386 -0.1112 -0.3461 -0.1716
 2028WAT     H1 6295   0.341   3.964   3.326 -0.5113 -0.0630 -0.4329
 2028WAT     H2 6296   0.259   3.840   3.352  0.2154 -0.4631 -0.0376
 2029WAT      O 6297   0.868   2.935   3.586 -0.0479 -0.7572 -0.0811
 2029WAT     H1 6298   0.865   3.020   3.632 -0.8935 -1.0585  0.4465
 2029WAT     H2 6299   0.941   2.888   3.628 -0.2965 -0.7162  0.4053
 2030WAT      O 6300   2.588   0.122   0.804 -0.3080 -0.4624  0.2014
 2030WAT     H1 6301   2.644   0.046   0.819  0.0139 -0.3394 -0.3349
 2030WAT     H2 6302   2.644   0.197   0.822 -0.6135 -0.3457  0.6903
 2031WAT      O 6303   2.673   4.891   1.763  0.5090 -0.4014 -0.0044
 2031WAT     H1 6304   2.743   4.949   1.794  0.9148 -1.2903  0.7866
 2031WAT     H2 6305   2.621   4.946   1.704  1.5511  0.4301 -0.1811
 2032WAT      O 6306   3.061   2.535   1.325 -0.1576  0.7531  0.5878
 2032WAT     H1 6307   3.114   2.555   1.402  0.6340 -0.4293  0.3855
 2032WAT     H2 6308   2.987   2.485   1.360  0.9699 -1.1068  0.4837
 2033WAT      O 6309   4.729   2.482   3.997 -0.1056  0.2504  0.0334
 2033WAT     H1 6310   4.811   2.529   3.979  0.2814 -0.5023 -0.2300
 2033WAT     H2 6311   4.715   2.494   4.091  0.9587 -0.5967  0.3247
 2034WAT      O 6312   2.681   1.355   2.872 -0.3451 -0.2497  0.0267
 2034WAT     H1 6313   2.692   1.267   2.835  0.7688  0.0620 -0.4329
 2034WAT     H2 6314   2.597   1.385   2.838  0.4483 -0.1310 -1.9908
 2035WAT      O 6315   4.785   3.355   1.521  0.3985  0.0408  0.0016
 2035WAT     H1 6316   4.707   3.325   1.475  0.7833  0.5446 -1.0189
 2035WAT     H2 6317   4.847   3.283   1.513  0.1828 -0.2026  0.4709
 2036WAT      O 6318   3.145   4.325   2.611 -0.5681  0.8416  0.3455
 2036WAT     H1 6319   3.155   4.374   2.529  1.5533 -1.4707 -0.9136
 2036WAT     H2 6320   3.234   4.302   2.637 -1.3846 -2.6845  0.5698
 2037WAT      O 6321   2.648   1.177   4.350  0.1561 -0.8879  0.1441
 2037WAT     H1 6322   2.612   1.138   4.430 -0.2230 -1.0889 -0.1228
 2037WAT     H2 6323   2.572   1.208   4.302  0.2878 -1.8013 -0.6844
 2038WAT      O 6324   3.789   2.942   2.408 -0.1254  0.2980  0.6435
 2038WAT     H1 6325   3.719   2.883   2.379  0.4692 -1.3368  2.3215
 2038WAT     H2 6326   3.833   2.968   2.327 -0.5475 -1.4280 -0.1915
 2039WAT      O 6327   2.434   2.543   2.718  0.3185  0.3215  0.5606
 2039WAT     H1 6328   2.355   2.557   2.666  1.3589  2.3819 -0.6146
 2039WAT     H2 6329   2.429   2.452   2.746 -1.9282  0.0975 -0.3512
 2040WAT      O 6330   3.610   1.321   2.709 -0.3955 -0.5284  0.6986
 2040WAT     H1 6331   3.589   1.410   2.683  0.1565 -0.4955  0.3465
 2040WAT     H2 6332   3.557   1.265   2.652  1.2755 -0.4736 -1.0095
 2041WAT      O 6333   0.099   4.207   5.159 -0.2838 -0.5672  0.2418
 2041WAT     H1 6334   0.048   4.197   5.079  0.8179  0.1402 -0.5735
 2041WAT     H2 6335   0.035   4.234   5.225 -1.7296 -3.7683  0.3357
 2042WAT      O 6336   2.377   1.716   2.063 -0.1358  0.0717 -0.1122
 2042WAT     H1 6337   2.411   1.693   2.150 -0.8803  1.5080  0.5887
 2042WAT     H2 6338   2.432   1.789   2.034 -1.6911  1.5253  0.4499
 2043WAT      O 6339   1.267   4.521   2.811 -0.1481  0.4673  0.1335
 2043WAT     H1 6340   1.190   4.465   2.820 -0.0059  0.3526  0.6603
 2043WAT     H2 6341   1.271   4.570   2.894  1.3489 -0.8056  0.8700
 2044WAT      O 6342   1.992   3.100   1.861  0.3540 -0.0203 -0.0535
 2044WAT     H1 6343   1.955   3.042   1.927  0.1451 -0.3169 -0.4310
 2044WAT     H2 6344   2.024   3.042   1.792  0.7072  0.2786 -0.1472
 2045WAT      O 6345   0.895   2.240   3.644  0.5571 -0.3833 -0.6250
 2045WAT     H1 6346   0.975   2.187   3.652  0.8836  0.0834 -0.7539
 2045WAT     H2 6347   0.874   2.238   3.551 -0.3459 -1.5996 -0.4216
 2046WAT      O 6348   2.317   0.892   3.443  0.5763  0.0848  0.1461
 2046WAT     H1 6349   2.256   0.890   3.370 -0.4077  0.3210  0.9508
 2046WAT     H2 6350   2.363   0.976   3.434  1.2716 -0.3873 -0.8380
 2047WAT      O 6351   1.711   3.361   1.761 -0.2627  0.0330 -0.4257
 2047WAT     H1 6352   1.792   3.405   1.733 -0.5183  0.9202  0.1914
 2047WAT     H2 6353   1.644   3.396   1.702 -0.6307  1.1883  0.6454
 2048WAT      O 6354   3.629   3.374   3.265 -0.4090 -0.1130  0.0545
 2048WAT     H1 6355   3.713   3.353   3.305 -0.6476  0.2962  0.7786
 2048WAT     H2 6356   3.643   3.457   3.220 -0.4888  0.0877  0.3942
 2049WAT      O 6357   3.055   2.717   2.866 -0.0743  0.1509  0.9367
 2049WAT     H1 6358   2.970   2.673   2.858  0.7050 -1.3098  0.0837
 2049WAT     H2 6359   3.076   2.743   2.776 -0.2135  1.7590  1.3352
 2050WAT      O 6360   2.000   0.882   1.491  0.1558 -0.2215 -0.1328
 2050WAT     H1 6361   1.954   0.965   1.478  0.0145 -0.4926 -1.6415
 2050WAT     H2 6362   1.949   0.819   1.439 -0.2506 -1.4541  1.6851
 2051WAT      O 6363   3.552   1.659   2.079  0.4949 -0.4478 -0.4864
 2051WAT     H1 6364   3.528   1.738   2.128 -1.3823 -0.6046 -1.0520
 2051WAT     H2 6365   3.566   1.592   2.147  2.7499  0.4706  0.0340
 2052WAT      O 6366   0.741   3.683   0.313  0.2508 -0.8588  0.7095
 2052WAT     H1 6367   0.737   3.766   0.361 -0.3350  0.0605 -0.8734
 2052WAT     H2 6368   0.833   3.657   0.319  0.9400  1.0535 -0.6122
 2053WAT      O 6369   4.072   3.275   3.547  0.1695  0.0625 -0.0575
 2053WAT     H1 6370   4.134   3.224   3.599 -1.4792 -1.1621  0.8149
 2053WAT     H2 6371   4.052   3.219   3.472 -0.2883  0.1907 -0.0383
 2054WAT      O 6372   3.560   0.961   2.859 -0.3048 -0.6915 -0.5694
 2054WAT     H1 6373   3.469   0.934   2.871 -1.2941  2.6914  0.6376
 2054WAT     H2 6374   3.584   1.003   2.942  1.2595  1.2282 -1.8950
 2055WAT      O 6375   2.348   0.394   1.989  0.5924 -0.1527  0.2329
 2055WAT     H1 6376   2.336   0.301   1.967 -0.4641 -0.0269  0.2189
 2055WAT     H2 6377   2.330   0.399   2.082 -3.2978  0.5954 -0.3816
 2056WAT      O 6378   3.247   3.075   0.449 -0.2569 -0.1759 -0.0166
 2056WAT     H1 6379   3.245   2.996   0.503  0.2509 -0.4733 -0.4213
 2056WAT     H2 6380   3.243   3.044   0.359  1.1182  0.1685 -0.2269
 2057WAT      O 6381   3.961   3.840   3.841 -0.0006  0.0219  0.5749
 2057WAT     H1 6382   3.952   3.810   3.931  0.1018 -0.2901  0.4815
 2057WAT     H2 6383   4.051   3.871   3.834 -0.0406  0.1490  0.6083
 2058WAT      O 6384   4.519   2.893   1.064 -0.0033 -0.0884 -0.1941
 2058WAT     H1 6385   4.506   2.988   1.073  0.8807  0.0271 -0.0727
 2058WAT     H2 6386   4.455   2.855   1.124 -1.2022  0.3818 -1.1232
 2059WAT      O 6387   1.693   4.525   0.764  0.1204 -0.4871  0.1055
 2059WAT     H1 6388   1.690   4.436   0.730 -0.1382 -0.3260 -0.3063
 2059WAT     H2 6389   1.710   4.579   0.687  0.8304 -0.2285  0.4403
 2060WAT      O 6390   1.521   2.226   3.286 -0.8966 -0.1041 -0.2057
 2060WAT     H1 6391   1.530   2.272   3.370  0.8126  1.0593 -0.9744
 2060WAT     H2 6392   1.555   2.138   3.303 -0.0628  0.2879  0.2001
 2061WAT      O 6393   3.614   4.269   4.155  0.3135 -0.2400  0.1115
 2061WAT     H1 6394   3.624   4.269   4.060  1.9735  2.9183  0.1445
 2061WAT     H2 6395   3.648   4.184   4.183  1.0000 -0.7301 -2.0284
 2062WAT      O 6396   1.663   2.903   1.627 -0.1765  0.4469  0.0871
 2062WAT     H1 6397   1.583   2.953   1.642  0.2613  0.4924  2.8144
 2062WAT     H2 6398   1.729   2.969   1.608 -0.1534  0.7136  1.0317
 2063WAT      O 6399   1.363   4.110   4.263  0.2790  0.1203 -0.7725
 2063WAT     H1 6400   1.386   4.039   4.324  1.6426  0.6013 -0.7011
 2063WAT     H2 6401   1.442   4.164   4.258 -0.9594  2.0497 -0.2888
 2064WAT      O 6402   1.944   0.872   2.573  0.4444  0.2660 -0.0965
 2064WAT     H1 6403   1.922   0.865   2.480  1.5983  1.5011 -0.4927
 2064WAT     H2 6404   1.898   0.951   2.602 -2.8961 -1.9776  1.3618
 2065WAT      O 6405   3.301   1.065   1.241 -0.2076  0.1273  0.2013
 2065WAT     H1 6406   3.249   1.126   1.188 -0.9168 -1.0103 -0.4335
 2065WAT     H2 6407   3.383   1.112   1.257 -0.8100  1.3252 -0.1142
 2066WAT      O 6408   0.875   2.221   3.383 -0.8435 -0.2648  0.1694
 2066WAT     H1 6409   0.791   2.266   3.371  0.0084  1.5140  0.4565
 2066WAT     H2 6410   0.941   2.289   3.366  0.5285 -1.4534  0.5463
 2067WAT      O 6411   1.576   4.162   3.436 -0.2600  0.9367  0.1237
 2067WAT     H1 6412   1.611   4.214   3.508 -0.8361  2.0023 -0.3460
 2067WAT     H2 6413   1.654   4.137   3.385  0.1426  0.2045  1.0767
 2068WAT      O 6414   2.451   4.197   2.531  0.0840  0.5649 -0.5727
 2068WAT     H1 6415   2.517   4.237   2.475  0.7944  2.1930  1.3158
 2068WAT     H2 6416   2.367   4.230   2.497  0.4961  1.5316 -0.6807
 2069WAT      O 6417   1.407   3.407   3.901  0.3830 -0.4748 -0.0571
 2069WAT     H1 6418   1.446   3.495   3.903 -0.4623 -0.0777  2.5444
 2069WAT     H2 6419   1.456   3.361   3.833  3.6914  0.7664  1.2406
 2070WAT      O 6420   1.371   2.486   0.939  0.0725 -0.3699  0.0344
 2070WAT     H1 6421   1.315   2.412   0.962 -0.5420  0.8873  3.2759
 2070WAT     H2 6422   1.453   2.469   0.985  0.5706  0.1000 -0.6715
 2071WAT      O 6423   0.275   2.985   1.401 -0.4510  0.0212 -0.2905
 2071WAT     H1 6424   0.184   3.010   1.390 -0.2127  1.0640  0.0377
 2071WAT     H2 6425   0.317   3.010   1.318 -0.1253  1.1468  0.1994
 2072WAT      O 6426   2.966   4.787   4.306 -0.5335  0.4743  0.0425
 2072WAT     H1 6427   3.061   4.777   4.294 -0.5109  0.9086 -0.1749
 2072WAT     H2 6428   2.949   4.749   4.393 -0.2280  0.0224 -0.0897
 2073WAT      O 6429   2.492   0.421   3.780  0.0364  0.0170 -0.5701
 2073WAT     H1 6430   2.572   0.464   3.748 -0.1904  1.2135  0.3824
 2073WAT     H2 6431   2.495   0.435   3.875 -0.4684 -1.4023 -0.3286
 2074WAT      O 6432   0.221   2.099   3.077  0.3309  0.2248 -0.8721
 2074WAT     H1 6433   0.188   2.096   2.988  0.4089  1.4235 -0.9526
 2074WAT     H2 6434   0.296   2.158   3.074 -0.1250  0.8999  0.1126
 2075WAT      O 6435   2.979   1.197   4.828  0.6596 -0.1862  0.3658
 2075WAT     H1 6436   3.043   1.240   4.772  0.1670 -1.5220 -1.2976
 2075WAT     H2 6437   3.023   1.191   4.913  2.7403 -0.9674 -0.6880
 2076WAT      O 6438   0.889   3.601   3.696 -0.5031  0.1638  0.0076
 2076WAT     H1 6439   0.882   3.656   3.618  0.0765  1.2576  0.7065
 2076WAT     H2 6440   0.983   3.584   3.705 -0.4745  0.7873  0.9642
 2077WAT      O 6441   1.977   5.198   4.181 -0.5573 -0.2680  0.2491
 2077WAT     H1 6442   2.044   5.131   4.195 -0.2842  0.0752  0.6439
 2077WAT     H2 6443   1.986   5.222   4.089  0.8386  0.7660  0.6120
 2078WAT      O 6444   1.514   2.737   1.275 -0.3367  0.2360  0.4407
 2078WAT     H1 6445   1.487   2.651   1.306 -1.1429  0.3392  0.0592
 2078WAT     H2 6446   1.474   2.745   1.188  1.8183 -0.0230 -0.6390
 2079WAT      O 6447   3.542   1.502   4.200  0.5605  0.2331  0.8737
 2079WAT     H1 6448   3.533   1.558   4.277 -0.0590  1.2689  0.0708
 2079WAT     H2 6449   3.456   1.503   4.159  0.8615 -0.3738  0.2126
 2080WAT      O 6450   0.766   3.035   2.073  0.5830  0.2389 -0.0021
 2080WAT     H1 6451   0.705   2.967   2.045  2.1920 -0.8475 -1.0546
 2080WAT     H2 6452   0.734   3.115   2.032 -0.6465 -0.1136  0.2391
 2081WAT      O 6453   0.013   2.535   2.241 -0.1030  0.4272 -0.0814
 2081WAT     H1 6454  -0.020   2.446   2.237 -0.8973  0.6589  0.8867
 2081WAT     H2 6455   0.019   2.563   2.150  1.7022 -1.1519 -0.5056
 2082WAT      O 6456   2.516   3.705   0.941 -0.1887 -0.0614 -0.0278
 2082WAT     H1 6457   2.513   3.658   1.024 -0.4844  3.1144  1.9400
 2082WAT     H2 6458   2.425   3.709   0.913 -0.4099  0.7766  0.7478
 2083WAT      O 6459   2.940   2.107   0.894  0.5786  0.4790  0.7415
 2083WAT     H1 6460   2.889   2.183   0.922 -0.4086  0.0475  0.1753
 2083WAT     H2 6461   2.920   2.098   0.801  1.4632  0.1043  0.5768
 2084WAT      O 6462   3.731   3.488   1.447  0.3743  0.1917  0.1404
 2084WAT     H1 6463   3.649   3.485   1.397  0.2076  0.7095  0.3765
 2084WAT     H2 6464   3.798   3.464   1.383 -0.1490 -2.1933  0.4229
 2085WAT      O 6465   2.653   0.712   1.496  0.1232 -0.0873  0.5301
 2085WAT     H1 6466   2.607   0.628   1.502 -0.7146  0.2621 -0.7700
 2085WAT     H2 6467   2.728   0.695   1.439  1.7336 -0.6526  2.6323
 2086WAT      O 6468   2.387   3.129   1.943  0.3700  0.5568  0.2528
 2086WAT     H1 6469   2.374   3.085   2.028 -0.0148 -0.0019 -0.0884
 2086WAT     H2 6470   2.324   3.200   1.943 -0.0282  0.2050  0.1963
 2087WAT      O 6471   4.847   1.322   0.995 -0.2757 -0.2905  0.7810
 2087WAT     H1 6472   4.829   1.415   0.982 -2.1869 -0.5674  1.2475
 2087WAT     H2 6473   4.817   1.304   1.083 -0.1280 -1.4158  0.6118
 2088WAT      O 6474   1.672   2.861   0.560  0.3486 -0.6876  0.2035
 2088WAT     H1 6475   1.604   2.855   0.627  0.5583 -0.7887  0.4076
 2088WAT     H2 6476   1.632   2.822   0.482  0.1298 -0.6353  0.2884
 2089WAT      O 6477   1.902   1.331   2.775 -0.5330  0.0230 -0.3119
 2089WAT     H1 6478   1.967   1.378   2.827 -0.1416 -2.9919  2.2419
 2089WAT     H2 6479   1.918   1.359   2.685 -0.2723  4.4720  0.9004
 2090WAT      O 6480   2.113   5.565   0.236  0.4862  0.1458 -0.7106
 2090WAT     H1 6481   2.137   5.658   0.240  1.6972 -0.0845 -2.0960
 2090WAT     H2 6482   2.101   5.547   0.143 -0.5221 -0.9142 -0.4021
 2091WAT      O 6483   2.262   1.242   2.218  0.0186 -0.6566 -0.0584
 2091WAT     H1 6484   2.303   1.311   2.270  1.9880 -1.1652 -0.8148
 2091WAT     H2 6485   2.286   1.161   2.263  0.8032 -1.0281 -1.1030
 2092WAT      O 6486   1.787   3.708   5.559  0.4089  0.3199 -0.2078
 2092WAT     H1 6487   1.841   3.783   5.585 -0.9426  0.4074  2.8868
 2092WAT     H2 6488   1.698   3.735   5.583 -0.3679 -1.5307 -0.8706
 2093WAT      O 6489   2.021   2.702   1.466  0.3659 -0.2859 -0.0253
 2093WAT     H1 6490   2.047   2.665   1.381 -1.3609 -0.7849 -0.3608
 2093WAT     H2 6491   1.935   2.741   1.450 -0.0133 -0.4309  1.5234
 2094WAT      O 6492   3.918   0.863   1.630  0.5725  0.3618  0.0855
 2094WAT     H1 6493   3.924   0.916   1.710 -2.2904  1.6801 -0.4658
 2094WAT     H2 6494   3.948   0.922   1.560  0.6672  0.0791 -0.1137
 2095WAT      O 6495   4.028   2.139   5.634  0.5792 -0.4987  0.0431
 2095WAT     H1 6496   3.969   2.213   5.624  1.0231  0.1098  1.6360
 2095WAT     H2 6497   4.086   2.144   5.558 -1.5599 -1.3215 -1.7520
 2096WAT      O 6498   2.211   2.608   3.222  0.3062 -0.3898 -0.4392
 2096WAT     H1 6499   2.165   2.544   3.167 -0.7490  0.6200 -0.7731
 2096WAT     H2 6500   2.222   2.685   3.166 -1.2978  0.8659  0.8752
 2097WAT      O 6501   3.528   4.622   5.228  0.5013  0.3336  0.0452
 2097WAT     H1 6502   3.552   4.711   5.253  0.5660  0.6535 -1.1428
 2097WAT     H2 6503   3.609   4.571   5.239  0.4279  0.3754  0.8593
 2098WAT      O 6504   3.536   5.180   0.570  0.4092  0.2701 -0.3266
 2098WAT     H1 6505   3.573   5.096   0.596 -1.2079 -0.7536 -1.1517
 2098WAT     H2 6506   3.553   5.185   0.475 -0.2570  0.4733 -0.4385
 2099WAT      O 6507   4.444   4.442   3.434  0.3370  0.1600 -0.1991
 2099WAT     H1 6508   4.383   4.466   3.504 -0.0241  0.4161 -0.5893
 2099WAT     H2 6509   4.424   4.503   3.363 -1.3499 -1.8964 -1.6416
 2100WAT      O 6510   1.852   4.361   2.830 -0.1639  0.7270  0.3486
 2100WAT     H1 6511   1.795   4.290   2.861  0.6898  0.0478  0.4091
 2100WAT     H2 6512   1.798   4.440   2.838 -0.6594  0.2873  1.6220
 2101WAT      O 6513   3.442   3.093   1.425 -0.3902  0.2449 -0.3368
 2101WAT     H1 6514   3.404   3.005   1.429  0.9728 -0.3575  0.0777
 2101WAT     H2 6515   3.497   3.098   1.503  0.4512  1.0407 -0.9641
 2102WAT      O 6516   3.023   1.051   0.276  0.4598 -0.2457 -0.0823
 2102WAT     H1 6517   2.997   0.978   0.220 -0.1584  1.0418 -1.5391
 2102WAT     H2 6518   3.109   1.025   0.310  0.0261 -1.8658 -0.1402
 2103WAT      O 6519   1.517   2.986   1.388  0.5634 -0.0397 -0.1319
 2103WAT     H1 6520   1.509   2.891   1.377 -2.8698 -0.1970  2.0206
 2103WAT     H2 6521   1.440   3.021   1.342  0.6381  1.4890  0.8624
 2104WAT      O 6522   0.159   2.563   4.779 -0.3370  0.3188 -0.1996
 2104WAT     H1 6523   0.221   2.591   4.711  0.4451 -0.8178  0.0086
 2104WAT     H2 6524   0.091   2.516   4.731  1.2856 -2.3520 -0.1179
 2105WAT      O 6525   2.921   0.683   1.320 -0.3794 -0.5618  0.2351
 2105WAT     H1 6526   2.957   0.772   1.328 -1.1496 -0.2157 -0.0874
 2105WAT     H2 6527   2.938   0.643   1.405 -0.8687  0.2146  0.7054
 2106WAT      O 6528   2.025   3.384   0.008 -0.0637  0.6813 -0.6302
 2106WAT     H1 6529   1.948   3.326   0.008 -0.6052  1.2701  1.8891
 2106WAT     H2 6530   2.099   3.325   0.017 -0.5104  0.2572  0.4757
 2107WAT      O 6531   0.039   1.712   2.147  0.1257 -0.1354  0.1435
 2107WAT     H1 6532   0.038   1.620   2.172  0.2999 -0.0130  0.6324
 2107WAT     H2 6533  -0.014   1.717   2.068  0.2126 -0.6724  0.0509
 2108WAT      O 6534   4.871   3.064   1.538 -0.0962  0.0280 -0.8257
 2108WAT     H1 6535   4.927   3.015   1.478 -1.2967 -0.6366 -1.4223
 2108WAT     H2 6536   4.785   3.024   1.530 -0.7033  1.1043 -0.0095
 2109WAT      O 6537   3.509   3.555   2.447 -0.1377 -0.2860  0.7388
 2109WAT     H1 6538   3.505   3.524   2.538 -1.2107 -0.9115  0.4999
 2109WAT     H2 6539   3.542   3.645   2.454 -0.1098 -0.3599  1.7430
 2110WAT      O 6540   3.667   0.316   1.352  0.1178 -0.1646  0.1486
 2110WAT     H1 6541   3.684   0.260   1.276  0.3144 -0.3213  0.3061
 2110WAT     H2 6542   3.752   0.322   1.396 -0.0574 -0.2970  0.5035
 2111WAT      O 6543   2.746   4.778   5.132 -0.6037 -0.2278  0.5375
 2111WAT     H1 6544   2.822   4.819   5.173 -0.2645  0.0732 -0.3610
 2111WAT     H2 6545   2.701   4.733   5.203  0.4892 -0.5177  1.0561
 2112WAT      O 6546   0.833   1.677   1.549 -0.1613 -0.1208  0.3680
 2112WAT     H1 6547   0.795   1.763   1.528  0.2163  0.2443  1.1485
 2112WAT     H2 6548   0.804   1.620   1.477  0.2931  0.8612 -0.6282
 2113WAT      O 6549   1.284   2.507   2.466 -0.2690 -0.2397  0.2433
 2113WAT     H1 6550   1.362   2.494   2.521  0.8950  2.4970 -0.6174
 2113WAT     H2 6551   1.279   2.427   2.413  1.3446 -0.9024  1.0172
 2114WAT      O 6552   0.003   3.343   2.957  0.0086  0.1317  0.0819
 2114WAT     H1 6553  -0.075   3.309   3.001 -0.1610  2.1506  1.4769
 2114WAT     H2 6554  -0.013   3.328   2.864 -1.9201  0.2380  0.3611
 2115WAT      O 6555   3.291   1.657   5.698 -0.3705  0.1105 -0.4014
 2115WAT     H1 6556   3.204   1.629   5.671 -0.6994  0.9554 -0.2236
 2115WAT     H2 6557   3.288   1.752   5.697  0.6203  0.1581 -0.6154
 2116WAT      O 6558   4.468   4.263   0.783 -0.1750 -0.5493 -0.4686
 2116WAT     H1 6559   4.541   4.204   0.762 -0.5727 -1.0770 -0.3713
 2116WAT     H2 6560   4.478   4.280   0.877  0.3506  0.1131 -0.6307
 2117WAT      O 6561   4.181   1.869   0.580 -0.5680  0.0874 -0.5102
 2117WAT     H1 6562   4.092   1.857   0.548 -0.5458 -0.2021 -0.4642
 2117WAT     H2 6563   4.204   1.958   0.553 -0.8632  0.1562 -0.5375
 2118WAT      O 6564   0.680   3.043   5.770  0.7006  0.0916 -0.3982
 2118WAT     H1 6565   0.626   3.047   5.848  0.3925 -1.7880 -0.4593
 2118WAT     H2 6566   0.751   3.105   5.786  0.5990 -0.2014  1.3347
 2119WAT      O 6567   0.428   2.654   2.906  0.2275 -0.2703  0.4155
 2119WAT     H1 6568   0.474   2.607   2.975  2.8385 -0.5815 -1.3853
 2119WAT     H2 6569   0.498   2.693   2.853 -1.5650 -0.9684 -2.6828
 2120WAT      O 6570   3.619   3.463   0.623  0.2713  0.0372  0.0187
 2120WAT     H1 6571   3.526   3.461   0.645  0.5345 -0.6534  1.1019
 2120WAT     H2 6572   3.659   3.515   0.692  0.8375 -0.5366  0.1284
 2121WAT      O 6573   0.715   2.575   0.424  0.6246 -0.4478 -0.5513
 2121WAT     H1 6574   0.779   2.612   0.363  1.0705  0.3826  0.3943
 2121WAT     H2 6575   0.637   2.629   0.412  1.0895  0.4631  0.4212
 2122WAT      O 6576   1.426   2.411   3.983 -0.0070 -0.0683 -0.4411
 2122WAT     H1 6577   1.416   2.319   3.958 -2.0061 -0.2662  0.8992
 2122WAT     H2 6578   1.409   2.413   4.077  3.0033  1.2842  0.2000
 2123WAT      O 6579   3.234   3.433   5.645  0.4883 -0.1996  0.2366
 2123WAT     H1 6580   3.238   3.387   5.728  1.3948 -1.0346 -0.2584
 2123WAT     H2 6581   3.192   3.371   5.585  1.2687 -0.2120 -0.3095
 2124WAT      O 6582   2.034   4.872   1.216  0.1171 -0.0338 -0.8052
 2124WAT     H1 6583   2.072   4.786   1.196 -0.8000 -0.3399 -1.3052
 2124WAT     H2 6584   1.977   4.856   1.291 -2.8138 -0.7106 -2.9622
 2125WAT      O 6585   2.432   2.513   1.969 -0.2447  0.4134  0.8529
 2125WAT     H1 6586   2.443   2.496   2.063  1.6289  0.9086  0.7733
 2125WAT     H2 6587   2.509   2.472   1.928 -1.2373 -0.1392 -0.5276
 2126WAT      O 6588   0.922   1.607   2.879 -0.5418  0.4453  0.0998
 2126WAT     H1 6589   0.921   1.678   2.815  0.6797 -0.6721 -1.2295
 2126WAT     H2 6590   0.975   1.538   2.838 -1.3343 -1.0827  1.5099
 2127WAT      O 6591   3.417   3.000   5.377 -0.2093 -0.3681  0.2393
 2127WAT     H1 6592   3.391   3.061   5.308 -0.2639  1.0976  1.4855
 2127WAT     H2 6593   3.340   2.945   5.391 -0.4975 -0.0985 -0.2558
 2128WAT      O 6594   3.166   2.632   1.568 -0.3188 -0.3020  0.0944
 2128WAT     H1 6595   3.207   2.549   1.592 -0.3880 -0.2886  0.2616
 2128WAT     H2 6596   3.178   2.688   1.644 -0.0841 -0.0866 -0.0996
 2129WAT      O 6597   2.278   2.190   3.217 -0.8358 -0.8096  0.1857
 2129WAT     H1 6598   2.230   2.218   3.295 -1.5300 -3.5358  0.8288
 2129WAT     H2 6599   2.370   2.193   3.243 -0.9308  0.0789  0.4569
 2130WAT      O 6600   0.770   2.065   2.141 -0.5669 -0.3728 -0.0072
 2130WAT     H1 6601   0.689   2.113   2.124 -0.1331 -0.0405 -1.2454
 2130WAT     H2 6602   0.788   2.080   2.234 -2.0507 -0.6686  0.3506
 2131WAT      O 6603   1.265   3.431   3.419 -0.4337  0.2795  0.0259
 2131WAT     H1 6604   1.169   3.427   3.413 -0.5898  1.9027  0.8173
 2131WAT     H2 6605   1.287   3.363   3.483 -0.7609 -1.8789 -2.0023
 2132WAT      O 6606   3.938   2.566   4.365  0.0959  0.1822  0.0407
 2132WAT     H1 6607   3.896   2.481   4.354  0.7962 -0.3643  1.3977
 2132WAT     H2 6608   4.027   2.545   4.392  1.1509  1.3168 -2.3161
 2133WAT      O 6609   1.729   1.416   0.584 -0.1957 -0.1886  0.6501
 2133WAT     H1 6610   1.718   1.327   0.620  1.5909 -0.3119  0.9773
 2133WAT     H2 6611   1.679   1.472   0.644 -2.5229 -1.0618 -0.3371
 2134WAT      O 6612   4.267   2.787   5.083  0.9083 -0.1055 -0.2379
 2134WAT     H1 6613   4.221   2.727   5.024  0.8359 -0.1973 -0.0900
 2134WAT     H2 6614   4.294   2.860   5.027  1.3759 -0.4767 -0.5060
 2135WAT      O 6615   3.481   1.920   0.423  0.0213  0.1731  0.3207
 2135WAT     H1 6616   3.547   1.979   0.460  0.9784 -0.2557 -0.6525
 2135WAT     H2 6617   3.407   1.926   0.483 -0.3370  3.1807 -0.2429
 2136WAT      O 6618   2.323   0.782   0.932  0.0827  0.2228  0.3634
 2136WAT     H1 6619   2.311   0.877   0.927  0.9611  0.3479  0.4913
 2136WAT     H2 6620   2.407   0.770   0.976  0.8667 -0.5781 -1.2736
 2137WAT      O 6621   2.008   3.445   2.445 -0.0585  0.1580  0.1107
 2137WAT     H1 6622   1.946   3.439   2.372  0.3203 -0.8746 -0.1446
 2137WAT     H2 6623   2.002   3.536   2.474 -2.8302 -0.2649  1.1099
 2138WAT      O 6624   2.742   0.109   1.229  0.4013 -0.0042 -0.0969
 2138WAT     H1 6625   2.661   0.114   1.280  0.8793 -0.7231  0.7719
 2138WAT     H2 6626   2.779   0.196   1.236  0.6737 -0.1961  1.1937
 2139WAT      O 6627   1.139   1.941   2.805 -0.2013  0.0653 -0.6763
 2139WAT     H1 6628   1.158   1.919   2.896  0.3782 -0.4262 -0.9109
 2139WAT     H2 6629   1.103   2.030   2.810 -1.1914 -0.3640  0.1307
 2140WAT      O 6630   2.251   2.113   0.384 -0.6139  0.5044  0.3921
 2140WAT     H1 6631   2.235   2.164   0.463  0.2833  0.0725  0.8577
 2140WAT     H2 6632   2.342   2.086   0.390 -0.2503  1.2424 -1.2470
 2141WAT      O 6633   1.433   1.262   0.901  0.3023  0.3624  0.0712
 2141WAT     H1 6634   1.402   1.302   0.820 -2.4223 -1.6222 -0.0174
 2141WAT     H2 6635   1.443   1.169   0.879  3.6322  0.3901  0.9869
 2142WAT      O 6636   1.246   2.633   1.162  0.4257 -0.1896  0.6915
 2142WAT     H1 6637   1.210   2.700   1.219  2.8474  1.3366  0.5602
 2142WAT     H2 6638   1.172   2.604   1.108 -1.3939 -0.0185  2.9584
 2143WAT      O 6639   2.411   4.186   5.032 -0.1788  0.1565 -0.9688
 2143WAT     H1 6640   2.329   4.225   5.063 -0.6415 -0.8556 -0.8788
 2143WAT     H2 6641   2.420   4.105   5.082  2.0815  1.3187  0.7262
 2144WAT      O 6642   3.288   1.347   2.425 -0.5717  0.4025  0.2164
 2144WAT     H1 6643   3.361   1.409   2.424  0.3797 -0.6082  2.2301
 2144WAT     H2 6644   3.219   1.391   2.475 -0.4783  0.4468  0.3062
 2145WAT      O 6645   1.531   3.633   5.303 -0.3705  0.0826  0.0357
 2145WAT     H1 6646   1.451   3.681   5.328  0.2789  0.8739  0.6354
 2145WAT     H2 6647   1.546   3.572   5.375 -0.0094  0.4762  0.2988
 2146WAT      O 6648   1.924   0.605   0.505 -0.6478 -0.8882 -0.4690
 2146WAT     H1 6649   2.000   0.654   0.537 -0.8762  1.4569 -3.0789
 2146WAT     H2 6650   1.951   0.514   0.506  0.7812 -0.5173  2.1903
 2147WAT      O 6651   1.388   1.917   0.966  0.4921  0.2765 -0.2143
 2147WAT     H1 6652   1.329   1.954   0.900  3.2520  0.2999 -2.9168
 2147WAT     H2 6653   1.421   1.993   1.014 -0.8604  0.3405  0.6772
 2148WAT      O 6654   4.522   2.023   2.250  0.1271 -0.0148  0.3341
 2148WAT     H1 6655   4.589   2.090   2.234  2.2420 -2.0546  0.1453
 2148WAT     H2 6656   4.520   1.971   2.169  1.3049 -2.4024  1.7290
 2149WAT      O 6657   0.393   3.759   2.105 -1.0126  0.0311  0.2469
 2149WAT     H1 6658   0.306   3.719   2.099 -1.3674  0.6969  0.7293
 2149WAT     H2 6659   0.422   3.739   2.195 -0.5738 -0.3739  0.0171
 2150WAT      O 6660   0.369   3.494   5.453 -0.0629 -0.1640  0.2656
 2150WAT     H1 6661   0.324   3.438   5.518 -0.0154  0.1178  0.5441
 2150WAT     H2 6662   0.436   3.540   5.504 -1.4074  1.6775  0.4593
 2151WAT      O 6663   4.948   4.297   5.680 -0.3478 -0.1091  0.4449
 2151WAT     H1 6664   5.019   4.314   5.618  0.1327 -0.4047  0.9110
 2151WAT     H2 6665   4.885   4.244   5.630 -0.7254  0.9735 -0.2763
 2152WAT      O 6666   1.496   1.541   2.517 -0.2782  0.0208 -0.1140
 2152WAT     H1 6667   1.427   1.598   2.484 -0.0558 -0.1387 -0.8741
 2152WAT     H2 6668   1.567   1.550   2.454  0.0505 -0.5103  0.1704
 2153WAT      O 6669   4.050   3.368   2.304  0.8035  0.5531  0.5759
 2153WAT     H1 6670   4.010   3.375   2.391  0.5554  1.9206  0.3872
 2153WAT     H2 6671   4.136   3.409   2.314  0.9624  0.2893  0.2887
 2154WAT      O 6672   2.416   2.784   5.731  0.1716  0.2323 -0.1747
 2154WAT     H1 6673   2.429   2.744   5.645  0.9146  0.5165 -0.2084
 2154WAT     H2 6674   2.421   2.711   5.793  1.7804  0.2722 -0.2146
 2155WAT      O 6675   3.870   0.479   1.162 -0.0392 -0.1686  0.0869
 2155WAT     H1 6676   3.901   0.481   1.071 -0.6757 -2.6662 -0.2619
 2155WAT     H2 6677   3.950   0.471   1.213  0.3865  2.0195 -0.1264
 2156WAT      O 6678   4.635   1.551   2.385  0.1162 -0.0929  0.3405
 2156WAT     H1 6679   4.567   1.485   2.391 -0.9856  0.9659 -0.0776
 2156WAT     H2 6680   4.663   1.549   2.294  1.4836 -1.2776  0.7295
 2157WAT      O 6681   3.551   3.892   3.001  0.3133 -0.1824  0.4877
 2157WAT     H1 6682   3.644   3.916   2.998  0.2336  1.0866  3.7681
 2157WAT     H2 6683   3.550   3.804   3.036  0.2611 -0.8626 -1.1324
 2158WAT      O 6684   1.080   3.786   0.943 -0.4890  0.2768  0.6063
 2158WAT     H1 6685   1.032   3.869   0.949 -1.5488 -0.1526 -1.2943
 2158WAT     H2 6686   1.014   3.720   0.925  0.6961 -0.3652 -1.8973
 2159WAT      O 6687   4.247   3.917   3.853 -0.4573 -0.8780  0.1859
 2159WAT     H1 6688   4.312   3.929   3.923  1.3407 -1.6076 -1.2861
 2159WAT     H2 6689   4.268   3.985   3.789 -1.7429 -0.5639  0.0750
 2160WAT      O 6690   2.134   2.721   3.875 -0.2233 -0.1927 -0.3145
 2160WAT     H1 6691   2.061   2.746   3.931  1.0199  0.2407  1.1697
 2160WAT     H2 6692   2.141   2.793   3.812 -1.9753 -0.9429 -1.4700
 2161WAT      O 6693   3.197   2.668   2.311 -0.5230  0.6846  0.5001
 2161WAT     H1 6694   3.248   2.693   2.388  1.2572  3.3508 -1.3931
 2161WAT     H2 6695   3.142   2.744   2.292 -2.1856 -0.5623  0.0561
 2162WAT      O 6696   2.118   2.163   4.288 -0.5984 -0.1333 -0.2372
 2162WAT     H1 6697   2.038   2.112   4.295 -0.0624 -1.0185 -0.3921
 2162WAT     H2 6698   2.089   2.252   4.269 -1.5166 -0.6785 -1.5410
 2163WAT      O 6699   2.001   3.835   1.620  0.6035  0.5595  0.2506
 2163WAT     H1 6700   2.010   3.926   1.646  0.5367  1.1036 -1.5307
 2163WAT     H2 6701   2.088   3.810   1.588 -0.1647  1.1154 -2.5224
 2164WAT      O 6702   1.659   4.272   0.671 -0.1587  0.3309 -0.0666
 2164WAT     H1 6703   1.721   4.213   0.629  0.6965  2.2470 -1.6953
 2164WAT     H2 6704   1.601   4.301   0.600 -0.8451  1.0641  0.7615
 2165WAT      O 6705   2.031   4.342   5.068 -0.3386 -0.9779  0.6462
 2165WAT     H1 6706   1.951   4.292   5.081  0.2891 -2.2175 -0.0833
 2165WAT     H2 6707   2.097   4.296   5.119  0.0710 -0.3861  0.6597
 2166WAT      O 6708   4.381   3.700   4.287  0.4934  0.1904  0.1955
 2166WAT     H1 6709   4.393   3.629   4.224  1.0026 -1.0786  1.6646
 2166WAT     H2 6710   4.346   3.658   4.365  0.9330  1.5443  1.1651
 2167WAT      O 6711   1.472   1.485   1.436  0.1873 -0.2882 -0.2795
 2167WAT     H1 6712   1.545   1.543   1.413  1.1436 -1.9855 -1.8286
 2167WAT     H2 6713   1.442   1.516   1.521  2.1063  1.0566 -0.0383
 2168WAT      O 6714   2.267   0.460   5.568  0.0344  0.2265 -0.2949
 2168WAT     H1 6715   2.295   0.490   5.654 -0.3897 -0.3703  0.0618
 2168WAT     H2 6716   2.321   0.382   5.551 -0.2671  0.0218 -0.3212
 2169WAT      O 6717   3.336   0.440   4.766  0.0455  0.1926  0.1044
 2169WAT     H1 6718   3.335   0.495   4.844  0.4378  0.3974 -0.0305
 2169WAT     H2 6719   3.334   0.351   4.800 -0.3961  0.2846  0.3299
 2170WAT      O 6720   2.631   2.700   2.620 -0.4217 -0.2032 -0.1956
 2170WAT     H1 6721   2.598   2.689   2.530 -0.3933  1.1994 -0.3950
 2170WAT     H2 6722   2.585   2.633   2.670  0.5316 -1.9085 -1.4680
 2171WAT      O 6723   0.156   3.986   0.539 -0.3441 -0.6622 -0.2069
 2171WAT     H1 6724   0.215   4.003   0.465  0.9549 -1.7425  0.5291
 2171WAT     H2 6725   0.183   4.048   0.606 -1.3698  0.1557 -0.5149
 2172WAT      O 6726   3.112   2.560   3.338  0.0164  0.3599  0.0586
 2172WAT     H1 6727   3.146   2.532   3.423  2.6291 -0.8868 -1.3032
 2172WAT     H2 6728   3.149   2.647   3.325 -0.2871  0.5007  0.1118
 2173WAT      O 6729   2.764   3.126   3.831 -0.1619 -0.1880 -0.3135
 2173WAT     H1 6730   2.764   3.107   3.925 -1.6594 -1.0955 -0.4639
 2173WAT     H2 6731   2.831   3.067   3.795  1.9553  1.6649  0.3985
 2174WAT      O 6732   3.674   3.131   2.023  0.2351 -0.4396  0.0678
 2174WAT     H1 6733   3.672   3.217   2.064 -1.0744 -1.0951  1.5152
 2174WAT     H2 6734   3.760   3.096   2.044  0.4178  0.1558  0.3162
 2175WAT      O 6735   2.329   3.978   1.234 -0.2591  0.5959  0.1721
 2175WAT     H1 6736   2.304   3.979   1.326 -0.6681 -0.9272  0.1170
 2175WAT     H2 6737   2.419   3.945   1.234  0.4764  2.5115  0.1294
 2176WAT      O 6738   2.564   4.984   3.328 -0.0754  0.1657  0.1455
 2176WAT     H1 6739   2.628   4.986   3.257  0.2549  1.8713  0.4679
 2176WAT     H2 6740   2.482   4.957   3.286  0.1071  1.2008 -0.8986
 2177WAT      O 6741   0.901   3.564   3.275  0.2595 -0.4080 -0.6712
 2177WAT     H1 6742   0.896   3.529   3.186  0.3101 -1.7600 -0.1593
 2177WAT     H2 6743   0.955   3.502   3.322 -0.2184  0.0024  0.4520
 2178WAT      O 6744   3.617   1.158   0.349 -0.2198  0.1816  0.0039
 2178WAT     H1 6745   3.612   1.198   0.263 -0.3687 -0.1333 -0.1361
 2178WAT     H2 6746   3.598   1.229   0.410  0.6261  0.5802 -0.1775
 2179WAT      O 6747   1.910   5.398   2.888 -0.1502 -0.0228 -0.0089
 2179WAT     H1 6748   1.899   5.340   2.813 -0.7401 -1.2115  0.9594
 2179WAT     H2 6749   2.005   5.404   2.899  0.1198 -4.2986  2.3383
 2180WAT      O 6750   2.563   3.035   5.593 -0.1031  0.7352 -0.8956
 2180WAT     H1 6751   2.509   2.982   5.652  0.9398  1.4667  0.7941
 2180WAT     H2 6752   2.501   3.094   5.550 -1.0964 -0.8566 -1.7773
 2181WAT      O 6753   3.255   1.733   4.210  0.0317 -0.0760  0.5532
 2181WAT     H1 6754   3.318   1.786   4.161 -0.6710 -1.0623 -1.5803
 2181WAT     H2 6755   3.275   1.643   4.183 -1.6153 -0.4851  0.5962
 2182WAT      O 6756   0.077   2.152   0.069 -0.2087  0.1409  0.5418
 2182WAT     H1 6757   0.144   2.186   0.129 -0.5990  0.3051  0.8920
 2182WAT     H2 6758   0.078   2.212  -0.005  1.1360 -0.7554 -0.2149
 2183WAT      O 6759   2.381   4.199   0.056  0.2169  0.1168 -0.1654
 2183WAT     H1 6760   2.431   4.185  -0.024 -0.2212  1.1388 -0.6402
 2183WAT     H2 6761   2.444   4.242   0.115  0.5021 -0.5179 -0.0026
 2184WAT      O 6762   1.989   1.365   2.518  0.0408  0.3584  0.3217
 2184WAT     H1 6763   2.069   1.333   2.558  0.7664 -1.1645 -2.1517
 2184WAT     H2 6764   2.012   1.451   2.483 -0.0335  0.8083  1.3314
 2185WAT      O 6765   3.253   3.567   0.120  0.1227  0.5633  0.3469
 2185WAT     H1 6766   3.301   3.495   0.080 -1.4570 -0.0104 -0.5816
 2185WAT     H2 6767   3.303   3.588   0.199  0.8081 -1.2935  0.4402
 2186WAT      O 6768   2.933   1.785   1.913 -0.3473  0.1339 -0.3803
 2186WAT     H1 6769   2.885   1.750   1.838  1.0802 -1.0044 -0.8056
 2186WAT     H2 6770   2.916   1.723   1.984  0.7445 -0.4749 -0.6333
 2187WAT      O 6771   3.342   0.497   0.461  0.4302 -0.4225  0.0103
 2187WAT     H1 6772   3.270   0.460   0.512  0.4969  0.0710  0.4704
 2187WAT     H2 6773   3.299   0.537   0.385 -0.2231  2.8839  1.9311
 2188WAT      O 6774   0.146   2.725   0.611 -0.4288  0.1787 -0.0180
 2188WAT     H1 6775   0.111   2.766   0.532 -1.2009 -0.5690 -0.0778
 2188WAT     H2 6776   0.118   2.633   0.605 -0.7476  0.1738  1.2660
 2189WAT      O 6777   1.708   1.593   1.389 -0.0722 -0.0764  0.3379
 2189WAT     H1 6778   1.768   1.563   1.320  1.1498  1.6244  0.5946
 2189WAT     H2 6779   1.738   1.548   1.468 -1.2609 -1.7669 -0.1278
 2190WAT      O 6780   1.167   2.419   1.435 -0.4078 -0.4923  0.0605
 2190WAT     H1 6781   1.208   2.369   1.364 -1.0675 -2.5188  1.0188
 2190WAT     H2 6782   1.077   2.433   1.405  0.1541  1.5216 -0.8455
 2191WAT      O 6783   0.573   2.649   1.759  0.7506  0.3311 -0.2142
 2191WAT     H1 6784   0.665   2.650   1.734  0.3920 -1.4805 -1.9182
 2191WAT     H2 6785   0.527   2.689   1.685  0.0574 -0.2584 -0.1179
 2192WAT      O 6786   3.294   3.228   3.929  0.3211  0.4566  0.2645
 2192WAT     H1 6787   3.289   3.253   3.837  0.9764 -0.3326  0.0059
 2192WAT     H2 6788   3.386   3.203   3.943  0.5639  1.8068  1.4680
 2193WAT      O 6789   3.552   0.616   1.364  0.4175  0.2729 -0.3353
 2193WAT     H1 6790   3.617   0.575   1.420  1.3791  0.7930 -1.0459
 2193WAT     H2 6791   3.472   0.566   1.380  0.8504 -0.0510  0.9324
 2194WAT      O 6792   1.080   2.965   4.083 -0.0485  0.5088  0.5121
 2194WAT     H1 6793   1.043   3.027   4.145 -0.4843  2.0240 -1.1713
 2194WAT     H2 6794   1.142   3.017   4.032  2.2335 -1.2665  1.2863
 2195WAT      O 6795   3.657   4.931   0.595 -0.4777 -0.2712 -0.1566
 2195WAT     H1 6796   3.696   4.875   0.663  0.5844  1.8212  1.0638
 2195WAT     H2 6797   3.719   4.928   0.523 -0.0004 -0.0473  0.2356
 2196WAT      O 6798   0.957   3.723   4.872  0.1298  0.1023 -0.0321
 2196WAT     H1 6799   1.021   3.697   4.938  0.3996 -0.9696 -0.7126
 2196WAT     H2 6800   0.971   3.818   4.862  1.9092 -0.1855 -0.4977
 2197WAT      O 6801   0.428   2.787   4.920  0.1847  0.1737  0.4556
 2197WAT     H1 6802   0.510   2.835   4.932  0.6268 -0.4228 -0.0897
 2197WAT     H2 6803   0.361   2.845   4.955  0.6853  1.2259 -0.2602
 2198WAT      O 6804   2.603   0.317   0.305  0.1963  0.0675  0.7287
 2198WAT     H1 6805   2.599   0.232   0.260 -0.3003  0.3981  0.1326
 2198WAT     H2 6806   2.514   0.333   0.335  0.0290  0.8946 -0.1502
 2199WAT      O 6807   3.024   1.945   5.570 -0.0320 -0.6337  0.0229
 2199WAT     H1 6808   2.995   2.030   5.603 -0.5935  0.1716 -2.3786
 2199WAT     H2 6809   2.943   1.894   5.561 -0.1990 -0.1178 -1.9271
 2200WAT      O 6810   1.574   1.158   2.023 -0.2892  0.1336 -0.2862
 2200WAT     H1 6811   1.531   1.198   1.948  0.7965  1.4993 -0.2069
 2200WAT     H2 6812   1.514   1.171   2.096  0.8419  3.5041  0.1939
 2201WAT      O 6813   0.512   1.330   0.706  0.2312 -0.2965  0.1527
 2201WAT     H1 6814   0.492   1.271   0.634 -0.7745 -0.4469  0.5494
 2201WAT     H2 6815   0.574   1.393   0.668  0.4101 -0.9028 -0.5854
 2202WAT      O 6816   2.658   1.570   0.675  0.0068 -0.0673  0.1825
 2202WAT     H1 6817   2.605   1.644   0.706  2.0169  2.1703 -1.3447
 2202WAT     H2 6818   2.625   1.552   0.587 -0.1733 -0.7353  0.3770
 2203WAT      O 6819   1.461   3.175   1.916 -0.7654 -0.2932 -0.5887
 2203WAT     H1 6820   1.512   3.255   1.905 -1.6101  0.0995 -1.9064
 2203WAT     H2 6821   1.434   3.152   1.827 -1.3744 -1.4800 -0.1125
 2204WAT      O 6822   1.284   2.747   4.076 -0.1697  0.3563 -0.4220
 2204WAT     H1 6823   1.297   2.734   4.170  0.2005  1.3988 -0.3095
 2204WAT     H2 6824   1.201   2.793   4.069 -1.0845 -1.2686 -0.7502
 2205WAT      O 6825   3.912   0.607   4.915  0.0008 -0.2991  0.2081
 2205WAT     H1 6826   3.967   0.603   4.993  1.3255  0.0936 -0.6639
 2205WAT     H2 6827   3.868   0.522   4.912  0.9523 -0.8250  0.6659
 2206WAT      O 6828   2.116   3.720   3.378  0.6177  0.0120  0.2295
 2206WAT     H1 6829   2.156   3.647   3.330  0.9860  1.0252 -1.0811
 2206WAT     H2 6830   2.031   3.732   3.337  0.3007 -0.0656  0.8533
 2207WAT      O 6831   3.631   5.173   0.957  0.1740 -0.3018  0.2275
 2207WAT     H1 6832   3.573   5.233   1.004  0.7999 -0.8591  1.7509
 2207WAT     H2 6833   3.572   5.109   0.917 -0.3233 -0.2357  0.8480
 2208WAT      O 6834   1.910   2.804   0.338  0.0963  0.6895 -0.1698
 2208WAT     H1 6835   1.966   2.781   0.264  1.8528 -1.0538  1.5645
 2208WAT     H2 6836   1.895   2.721   0.384 -3.0504  1.2886  0.1041
 2209WAT      O 6837   2.154   2.590   2.107  0.5944 -0.1944 -0.7213
 2209WAT     H1 6838   2.217   2.532   2.151  1.7863 -0.8195 -3.0548
 2209WAT     H2 6839   2.080   2.533   2.085 -1.0932  0.6182  2.3414
 2210WAT      O 6840   3.637   2.560   2.415 -0.1786 -0.0072 -0.4913
 2210WAT     H1 6841   3.662   2.604   2.497  1.8336 -0.0320 -1.0389
 2210WAT     H2 6842   3.569   2.498   2.441 -0.1077  0.5049  1.0271
 2211WAT      O 6843   3.424   4.415   1.922  0.0043  0.1844 -0.2025
 2211WAT     H1 6844   3.425   4.322   1.900 -0.1186  0.0188  0.4645
 2211WAT     H2 6845   3.515   4.443   1.914 -0.1030  0.2474 -1.3537
 2212WAT      O 6846   3.795   3.890   5.212  0.4755 -0.3053  0.0643
 2212WAT     H1 6847   3.890   3.902   5.220  0.9666 -2.7027 -1.1293
 2212WAT     H2 6848   3.759   3.979   5.213  2.4886  0.6086  2.7086
 2213WAT      O 6849   4.459   0.873   0.750 -0.1026  0.0178  0.3362
 2213WAT     H1 6850   4.489   0.815   0.820  0.0364  1.1841  1.2661
 2213WAT     H2 6851   4.363   0.865   0.753 -0.1202 -3.6570 -2.5952
 2214WAT      O 6852   3.250   2.439   1.795  0.7877 -0.2465 -0.3664
 2214WAT     H1 6853   3.328   2.385   1.781  0.3220 -0.6876 -1.3646
 2214WAT     H2 6854   3.258   2.469   1.886  1.7016 -0.9481 -0.1939
 2215WAT      O 6855   2.693   0.460   0.048  0.2666 -0.4075  0.2974
 2215WAT     H1 6856   2.650   0.430   0.128 -0.0118 -1.0335 -0.0831
 2215WAT     H2 6857   2.783   0.429   0.057  0.5457  0.5071  0.8805
 2216WAT      O 6858   1.735   4.609   0.058  0.4876 -0.2542 -0.1751
 2216WAT     H1 6859   1.716   4.690   0.106  0.9954 -0.0663 -0.2788
 2216WAT     H2 6860   1.727   4.633  -0.034  3.0616  0.3637 -0.3136
 2217WAT      O 6861   1.895   1.135   2.428 -0.0306 -0.4321 -0.0068
 2217WAT     H1 6862   1.960   1.119   2.359 -0.8621  0.2743 -0.9914
 2217WAT     H2 6863   1.932   1.205   2.481  0.1305 -0.2203 -0.3990
 2218WAT      O 6864   0.188   3.790   1.278  0.2654  0.2402  0.2914
 2218WAT     H1 6865   0.269   3.826   1.316 -0.2116  0.8816  0.7290
 2218WAT     H2 6866   0.211   3.701   1.253  0.9973  0.2754  0.7954
 2219WAT      O 6867   3.809   4.595   0.123  0.2235 -0.0136 -0.1680
 2219WAT     H1 6868   3.786   4.688   0.123  0.2436  0.0256  1.6276
 2219WAT     H2 6869   3.746   4.555   0.182 -0.0161 -1.2235 -1.2078
 2220WAT      O 6870   4.636   2.374   1.820  0.0516 -0.2680 -0.0563
 2220WAT     H1 6871   4.643   2.442   1.887  1.7473 -0.7627  0.3251
 2220WAT     H2 6872   4.715   2.384   1.767 -1.1250 -0.0679 -1.8552
 2221WAT      O 6873   0.319   3.293   0.431  0.6779  0.4386 -0.1488
 2221WAT     H1 6874   0.264   3.335   0.497  2.1298  0.6311  0.9983
 2221WAT     H2 6875   0.294   3.200   0.434 -1.5427  0.9186 -1.6899
 2222WAT      O 6876   4.788   2.596   0.748  0.1470 -0.7428 -0.2182
 2222WAT     H1 6877   4.823   2.533   0.685  2.9553  0.4299 -0.0046
 2222WAT     H2 6878   4.831   2.572   0.831 -0.8851 -0.2110  0.4865
 2223WAT      O 6879   1.327   3.947   5.461 -0.3361 -0.3328 -0.2009
 2223WAT     H1 6880   1.267   3.879   5.492 -1.8080  1.0453  0.0423
 2223WAT     H2 6881   1.309   3.954   5.368 -0.1620 -0.2904 -0.2318
 2224WAT      O 6882   2.538   1.851   5.718  0.4836 -0.3360 -0.0784
 2224WAT     H1 6883   2.497   1.934   5.693  0.6823  0.1713  1.1914
 2224WAT     H2 6884   2.484   1.784   5.676 -0.6999  0.3806  0.2549
 2225WAT      O 6885   3.203   0.104   4.591  0.2314 -0.3252 -0.4549
 2225WAT     H1 6886   3.245   0.048   4.656 -0.3492 -0.0745  0.1471
 2225WAT     H2 6887   3.274   0.134   4.535  0.8143 -0.1678  0.3484
 2226WAT      O 6888   3.377   2.282   2.254 -0.4394  0.3885 -0.1906
 2226WAT     H1 6889   3.342   2.292   2.342  1.3000  1.2042  0.4627
 2226WAT     H2 6890   3.403   2.190   2.249 -0.2653  0.4081  0.2753
 2227WAT      O 6891   4.819   3.552   0.119  0.9036  0.4445  0.5835
 2227WAT     H1 6892   4.738   3.576   0.166 -0.8712 -0.6957 -1.6881
 2227WAT     H2 6893   4.833   3.623   0.057  1.2424  0.3130  0.5091
 2228WAT      O 6894   0.207   1.386   4.019  0.3524 -0.0471 -0.5400
 2228WAT     H1 6895   0.131   1.352   3.971  1.0081  0.0026 -1.6550
 2228WAT     H2 6896   0.178   1.390   4.110 -1.0181  0.0757 -0.9537
 2229WAT      O 6897   4.246   1.906   4.467 -0.3039 -0.1644  0.4335
 2229WAT     H1 6898   4.233   1.874   4.556 -0.7952 -0.1088  0.3854
 2229WAT     H2 6899   4.237   1.828   4.412 -1.5188  0.0312  0.3151
 2230WAT      O 6900   3.034   2.354   4.214  0.6027  0.1618  0.3487
 2230WAT     H1 6901   2.993   2.294   4.152  1.6448 -0.5482  0.3328
 2230WAT     H2 6902   3.040   2.304   4.296  1.9941  0.0240  0.1808
 2231WAT      O 6903   3.825   3.762   1.365  0.6139  0.1191  0.0448
 2231WAT     H1 6904   3.887   3.725   1.303 -1.1869 -2.3670 -0.4420
 2231WAT     H2 6905   3.782   3.685   1.404 -1.9787  1.6708  0.4750
 2232WAT      O 6906   0.916   4.036   1.475 -0.1858 -0.0497  0.2765
 2232WAT     H1 6907   0.968   4.056   1.553  1.9366 -0.1095 -1.0397
 2232WAT     H2 6908   0.954   4.091   1.406 -1.9970 -0.0081 -0.7498
 2233WAT      O 6909   3.268   4.629   1.963  0.3987  0.4804  1.0954
 2233WAT     H1 6910   3.331   4.558   1.954  0.6320  0.5895  1.8057
 2233WAT     H2 6911   3.259   4.641   2.057 -1.1304  0.0838  1.0170
 2234WAT      O 6912   3.486   3.483   1.305  0.7293  0.0389  0.3391
 2234WAT     H1 6913   3.460   3.396   1.275  0.2956  0.3230 -0.1289
 2234WAT     H2 6914   3.426   3.543   1.260 -0.1424  0.4747  1.9770
 2235WAT      O 6915   0.550   3.247   2.964 -0.5262 -0.5636 -0.2045
 2235WAT     H1 6916   0.463   3.262   2.929 -0.6379 -0.4894  0.1051
 2235WAT     H2 6917   0.608   3.251   2.887 -0.6586  0.5173 -0.2665
 2236WAT      O 6918   4.928   2.397   4.627  0.3494 -0.5635 -0.1338
 2236WAT     H1 6919   4.922   2.478   4.576  2.1877 -0.6577 -0.5427
 2236WAT     H2 6920   4.836   2.376   4.647 -0.1844  1.8290  0.3736
 2237WAT      O 6921   4.622   2.649   4.949  0.2980 -0.3657  0.0193
 2237WAT     H1 6922   4.561   2.623   5.019 -0.3329 -1.2835 -0.8495
 2237WAT     H2 6923   4.689   2.700   4.994 -1.0392  0.5786  1.0352
 2238WAT      O 6924   4.380   3.211   2.374 -0.0480  0.3887  0.1901
 2238WAT     H1 6925   4.334   3.152   2.434  1.0329 -0.3804  0.2753
 2238WAT     H2 6926   4.337   3.296   2.388 -1.0181 -0.1693  0.7230
 2239WAT      O 6927   3.704   5.649   2.366  0.1392  0.1261  0.3854
 2239WAT     H1 6928   3.772   5.588   2.339 -1.3354 -0.3031 -2.6824
 2239WAT     H2 6929   3.713   5.723   2.306 -0.9051  0.9679  1.2214
 2240WAT      O 6930   4.724   3.544   1.741 -0.5974  0.1640  0.4087
 2240WAT     H1 6931   4.794   3.535   1.805 -1.0621 -0.6337  0.8222
 2240WAT     H2 6932   4.755   3.495   1.665 -1.0245 -0.8286  0.8677
 2241WAT      O 6933   0.334   3.859   5.700 -0.2013 -0.2811  0.4543
 2241WAT     H1 6934   0.391   3.817   5.636  0.8468  1.6855  0.0028
 2241WAT     H2 6935   0.346   3.808   5.780  1.3757 -0.5802  0.0612
 2242WAT      O 6936   0.893   3.987   2.893 -0.0299 -0.5514 -0.2433
 2242WAT     H1 6937   0.875   3.922   2.961  0.3938  0.7875  1.2063
 2242WAT     H2 6938   0.806   4.017   2.866 -0.1919 -0.6107  0.1976
 2243WAT      O 6939   3.010   3.880   1.324  0.7344 -0.3146 -0.6302
 2243WAT     H1 6940   3.085   3.926   1.288  1.7556  1.4415  3.2145
 2243WAT     H2 6941   2.943   3.947   1.335  0.4072 -0.7838  0.4348
 2244WAT      O 6942   4.715   1.063   0.795  0.1115  0.5696  0.1404
 2244WAT     H1 6943   4.664   1.057   0.875 -0.8614  0.3863 -0.4767
 2244WAT     H2 6944   4.806   1.063   0.824 -0.2016 -0.6178  1.1800
 2245WAT      O 6945   0.228   2.061   0.506  0.0438 -0.0742  0.7530
 2245WAT     H1 6946   0.268   2.057   0.593 -1.2450  1.3144  1.4524
 2245WAT     H2 6947   0.134   2.069   0.523 -0.2065  0.5607 -0.7610
 2246WAT      O 6948   3.299   1.610   2.703  0.2743 -0.0132  0.5714
 2246WAT     H1 6949   3.346   1.592   2.622 -1.3825  0.4032 -0.5480
 2246WAT     H2 6950   3.364   1.600   2.773  2.1088  1.0936 -0.9172
 2247WAT      O 6951   4.088   1.532   0.868 -0.3725  0.1782 -0.1148
 2247WAT     H1 6952   4.001   1.496   0.850 -1.1760  0.6030  2.4997
 2247WAT     H2 6953   4.141   1.456   0.891  0.0254 -0.0905 -1.7832
 2248WAT      O 6954   2.327   2.919   5.329 -0.4319 -0.3658 -0.0448
 2248WAT     H1 6955   2.306   2.841   5.380 -2.7290  0.7584  0.8806
 2248WAT     H2 6956   2.332   2.888   5.238 -1.9417 -1.5009  0.2245
 2249WAT      O 6957   2.038   1.328   0.563  0.3224  0.3398  0.2035
 2249WAT     H1 6958   2.037   1.395   0.495  1.1149  0.4072  0.2474
 2249WAT     H2 6959   1.958   1.278   0.549  0.9956 -0.3377 -1.4794
 2250WAT      O 6960   3.301   0.780   2.303  0.2176  0.5603  0.1183
 2250WAT     H1 6961   3.227   0.721   2.287 -0.3437  1.1085  0.6687
 2250WAT     H2 6962   3.301   0.839   2.228  0.9696 -0.2991 -0.5953
 2251WAT      O 6963   2.291   3.008   5.739  0.1843  0.5030  0.0783
 2251WAT     H1 6964   2.255   3.000   5.651 -1.4470  2.2324  0.5203
 2251WAT     H2 6965   2.340   2.927   5.753 -0.8575 -0.5038 -1.8063
 2252WAT      O 6966   1.458   3.827   0.425  0.5760  0.0152  0.5179
 2252WAT     H1 6967   1.409   3.899   0.385  2.6314  1.0933 -0.2747
 2252WAT     H2 6968   1.447   3.754   0.365  1.2011  0.7291 -0.5080
 2253WAT      O 6969   0.941   3.511   0.668  0.1169 -0.2155  0.1617
 2253WAT     H1 6970   1.026   3.480   0.699  0.5478 -0.4139 -1.1544
 2253WAT     H2 6971   0.959   3.597   0.630 -0.2068 -0.3822 -0.3853
 2254WAT      O 6972   3.747   1.301   5.207 -0.3515 -0.3220  0.0222
 2254WAT     H1 6973   3.658   1.273   5.227 -0.5900  1.0923  1.0675
 2254WAT     H2 6974   3.736   1.380   5.153  0.2537  0.1419  0.5643
 2255WAT      O 6975   3.171   3.200   5.497  0.1000  0.3962 -0.3203
 2255WAT     H1 6976   3.146   3.130   5.437 -1.1256 -1.2576  1.9811
 2255WAT     H2 6977   3.244   3.164   5.547  0.3432  1.2934 -0.0017
 2256WAT      O 6978   2.031   0.164   5.394 -0.1700  0.2888  0.2305
 2256WAT     H1 6979   1.999   0.143   5.306  1.9684 -0.1813 -0.4945
 2256WAT     H2 6980   2.003   0.254   5.409 -2.6748 -0.3817  0.1247
 2257WAT      O 6981   0.084   3.822   5.007  0.0113  0.1719  0.5119
 2257WAT     H1 6982   0.152   3.855   5.066  2.0290 -1.1032 -0.9439
 2257WAT     H2 6983   0.035   3.900   4.981  1.7682  1.3807  0.6285
 2258WAT      O 6984   3.442   3.399   1.969 -0.3015  0.4624 -0.2394
 2258WAT     H1 6985   3.500   3.324   1.969 -0.0570  0.6420  0.3266
 2258WAT     H2 6986   3.432   3.421   2.062 -1.4270  0.3162 -0.3115
 2259WAT      O 6987   1.536   2.456   2.655 -0.1507  0.4121  0.3677
 2259WAT     H1 6988   1.575   2.541   2.672 -1.6814  0.6952  2.8722
 2259WAT     H2 6989   1.610   2.396   2.651  0.9205  1.7475 -1.0469
 2260WAT      O 6990   3.922   5.257   3.456  0.1836  0.0301 -0.8491
 2260WAT     H1 6991   3.879   5.198   3.394 -2.8720  0.9621  0.1729
 2260WAT     H2 6992   3.857   5.269   3.526  1.4173  3.0302 -0.0459
 2261WAT      O 6993   2.410   3.126   1.189  0.3139 -0.5718  0.0509
 2261WAT     H1 6994   2.363   3.055   1.144 -0.8677  0.7049 -0.8499
 2261WAT     H2 6995   2.416   3.195   1.123  0.2533  0.6593  1.2919
 2262WAT      O 6996   2.772   0.753   5.346  0.1008 -0.3931 -0.2712
 2262WAT     H1 6997   2.802   0.753   5.255 -2.1434  1.9700 -1.1545
 2262WAT     H2 6998   2.844   0.796   5.394  0.6261 -0.1511 -1.2369
 2263WAT      O 6999   3.469   2.027   2.301 -0.8200  0.4661  0.0048
 2263WAT     H1 7000   3.468   2.043   2.395 -0.5852  0.4507  0.0094
 2263WAT     H2 7001   3.445   1.935   2.291  0.4021  0.1264  0.1184
 2264WAT      O 7002   0.563   2.729   0.078 -0.0994 -0.0742 -0.2829
 2264WAT     H1 7003   0.484   2.715   0.129  0.5922 -4.0659  0.0115
 2264WAT     H2 7004   0.531   2.745  -0.011 -1.2817 -1.0152 -0.0548
 2265WAT      O 7005   2.655   1.744   5.027 -0.3854  0.3258  0.4239
 2265WAT     H1 7006   2.571   1.790   5.034 -0.5805  0.0940 -0.3973
 2265WAT     H2 7007   2.705   1.794   4.963 -0.6157 -0.6225 -0.5158
 2266WAT      O 7008   3.291   0.499   5.380 -0.3925  0.4906 -0.6212
 2266WAT     H1 7009   3.371   0.481   5.330  0.9223  0.9299  1.2087
 2266WAT     H2 7010   3.229   0.433   5.350  2.1558 -3.0458  1.1602
 2267WAT      O 7011   3.132   3.861   4.302  0.2505  0.0711 -0.4451
 2267WAT     H1 7012   3.135   3.779   4.253  0.3293 -0.7341  0.8364
 2267WAT     H2 7013   3.043   3.892   4.292 -0.0463 -0.6711 -0.1912
 2268WAT      O 7014   2.075   2.301   0.285 -0.3829 -0.2203  0.2151
 2268WAT     H1 7015   2.142   2.364   0.311 -1.2067  1.1694 -0.8628
 2268WAT     H2 7016   2.123   2.220   0.268  0.9114  0.5103  0.2550
 2269WAT      O 7017   3.053   4.980   0.066 -0.2476  0.2317 -0.5152
 2269WAT     H1 7018   3.024   4.954   0.153 -0.6409  0.9589 -0.4202
 2269WAT     H2 7019   2.974   4.975   0.012 -0.5522  2.0260 -0.2992
 2270WAT      O 7020   2.164   1.375   4.159 -1.1162 -0.4099 -0.3733
 2270WAT     H1 7021   2.150   1.296   4.107 -1.0904  0.3222 -1.5372
 2270WAT     H2 7022   2.083   1.425   4.148 -1.0171 -0.1402  0.1054
 2271WAT      O 7023   2.313   0.913   4.058  0.1195 -0.6861  0.3483
 2271WAT     H1 7024   2.400   0.939   4.029 -0.3457  1.6547  0.8014
 2271WAT     H2 7025   2.280   0.857   3.988  1.4683 -0.4879 -0.4866
 2272WAT      O 7026   3.986   4.803   3.741 -0.2708  0.0657 -0.4274
 2272WAT     H1 7027   3.976   4.867   3.812  0.0645 -0.6878  0.3230
 2272WAT     H2 7028   4.081   4.800   3.726 -0.3527  0.3229 -1.0135
 2273WAT      O 7029   4.136   1.924   5.369  0.5144 -0.2000  0.2783
 2273WAT     H1 7030   4.219   1.886   5.399  0.3075 -0.9859 -0.1114
 2273WAT     H2 7031   4.138   1.915   5.274 -0.7183 -1.7764  0.3541
 2274WAT      O 7032   3.776   1.577   2.902  0.2348 -0.3841  0.3960
 2274WAT     H1 7033   3.802   1.593   2.993 -0.6846 -1.5191  0.8851
 2274WAT     H2 7034   3.735   1.659   2.874  1.2058  0.2365  0.7421
 2275WAT      O 7035   3.190   1.889   5.339 -0.9061  0.4371  0.3531
 2275WAT     H1 7036   3.284   1.877   5.351 -0.9624  0.6165  0.9917
 2275WAT     H2 7037   3.163   1.939   5.416 -1.3398  1.2800 -0.3388
 2276WAT      O 7038   3.369   1.527   3.482 -0.4129  0.0233 -0.3676
 2276WAT     H1 7039   3.323   1.443   3.485 -1.7644  0.7386 -0.3405
 2276WAT     H2 7040   3.461   1.504   3.499 -0.8131 -1.3886  0.0759
 2277WAT      O 7041   3.207   1.564   3.851 -0.0736 -0.1050 -0.3619
 2277WAT     H1 7042   3.240   1.480   3.818 -1.3270 -0.4453 -0.8127
 2277WAT     H2 7043   3.112   1.553   3.851 -0.2735  1.4372 -0.7576
 2278WAT      O 7044   3.588   0.141   4.687  0.1044  0.0197 -0.0405
 2278WAT     H1 7045   3.560   0.232   4.685 -0.6792 -0.2222 -0.1844
 2278WAT     H2 7046   3.557   0.104   4.605  0.4408 -0.3791  0.0044
 2279WAT      O 7047   2.924   2.970   0.824  0.1643 -0.0242  0.1793
 2279WAT     H1 7048   2.954   2.885   0.792  0.0961  0.2368 -0.5844
 2279WAT     H2 7049   2.861   2.948   0.894  0.2862 -0.5955  0.1133
 2280WAT      O 7050   1.830   1.152   3.977  0.3230 -0.3117 -0.3872
 2280WAT     H1 7051   1.868   1.066   3.957  1.6533  0.1127  0.1984
 2280WAT     H2 7052   1.792   1.141   4.065 -0.0599 -0.4609 -0.5675
 2281WAT      O 7053   3.284   1.455   4.091 -0.2823 -0.1106 -0.3965
 2281WAT     H1 7054   3.291   1.505   4.009 -0.1190  1.2599  0.4150
 2281WAT     H2 7055   3.266   1.366   4.063  0.6910  0.1356 -1.9629
 2282WAT      O 7056   4.058   1.938   0.176 -0.6291 -0.1697 -0.1958
 2282WAT     H1 7057   4.122   2.009   0.168  0.6525 -1.1781  0.6241
 2282WAT     H2 7058   4.095   1.867   0.122 -0.0383 -1.4248  1.7543
 2283WAT      O 7059   3.346   1.370   5.751 -0.3994  0.5455  0.1383
 2283WAT     H1 7060   3.398   1.442   5.786 -1.6263  0.5623  2.0467
 2283WAT     H2 7061   3.323   1.398   5.662  2.3675  0.7272 -0.6112
 2284WAT      O 7062   3.955   1.878   5.570  0.4517 -0.2511 -0.0360
 2284WAT     H1 7063   4.013   1.902   5.498  1.3210  1.2275  1.0992
 2284WAT     H2 7064   3.978   1.938   5.640 -0.7328 -1.3072  1.3160
 2285WAT      O 7065   3.710   1.389   0.593  0.1099  0.2856 -0.8126
 2285WAT     H1 7066   3.777   1.429   0.537  1.6083  2.2421  2.1207
 2285WAT     H2 7067   3.632   1.441   0.577  0.9271  1.8049 -0.0883
 2286WAT      O 7068   3.031   1.611   3.597 -0.1701 -0.5253 -0.3186
 2286WAT     H1 7069   3.044   1.518   3.615  0.2573 -0.1645  1.4381
 2286WAT     H2 7070   2.997   1.647   3.679  3.5002  1.6047  0.4993
 2287WAT      O 7071   2.141   5.119   2.146 -0.0834  0.0999 -0.5802
 2287WAT     H1 7072   2.052   5.141   2.175 -1.1271 -0.0983 -3.3468
 2287WAT     H2 7073   2.157   5.177   2.072  1.5535 -0.8238 -1.0035
 2288WAT      O 7074   4.127   3.105   0.644  0.0070 -0.1994  0.4969
 2288WAT     H1 7075   4.063   3.152   0.697  2.1935  2.2799  1.2009
 2288WAT     H2 7076   4.201   3.090   0.703  1.1310 -0.5517 -0.9357
 2289WAT      O 7077   4.190   0.642   1.749  0.0061  0.3195  0.0779
 2289WAT     H1 7078   4.126   0.603   1.809 -0.6345  0.0118 -0.7744
 2289WAT     H2 7079   4.195   0.734   1.776 -0.9051  0.3795  0.0715
 2290WAT      O 7080   2.757   0.639   0.349 -0.2165  0.0537  0.0953
 2290WAT     H1 7081   2.732   0.670   0.261  1.3128 -1.5925 -0.9863
 2290WAT     H2 7082   2.689   0.674   0.406 -2.9057 -1.0998 -2.1372
 2291WAT      O 7083   3.033   5.501   2.151  0.2508  0.0589  0.5667
 2291WAT     H1 7084   2.956   5.473   2.101 -0.1433 -1.8409  2.1167
 2291WAT     H2 7085   3.100   5.516   2.084 -0.7247 -0.8093 -0.6647
 2292WAT      O 7086   2.819   1.709   3.045  0.1054  0.2297 -0.2394
 2292WAT     H1 7087   2.785   1.629   3.085  1.7367 -0.4695 -0.1938
 2292WAT     H2 7088   2.900   1.682   3.002  0.7679  1.8763 -0.0993
 2293WAT      O 7089   2.651   1.868   4.151  0.1038 -0.2750  0.7303
 2293WAT     H1 7090   2.638   1.942   4.211  1.2308 -0.2959  1.0198
 2293WAT     H2 7091   2.583   1.880   4.084 -1.0713 -0.1462  1.8966
 2294WAT      O 7092   2.764   5.181   2.271 -0.6034  0.3339 -0.0350
 2294WAT     H1 7093   2.847   5.134   2.279 -2.2422 -2.7405  0.3976
 2294WAT     H2 7094   2.716   5.134   2.202 -2.7208  0.7737  1.0552
 2295WAT      O 7095   2.138   1.911   4.531  0.0547  0.3050 -0.3616
 2295WAT     H1 7096   2.130   1.993   4.579 -1.2588  0.4709 -0.8134
 2295WAT     H2 7097   2.105   1.931   4.443 -1.6176 -1.0206 -0.0836
 2296WAT      O 7098   2.568   0.063   3.705 -0.0231  0.1737  0.2678
 2296WAT     H1 7099   2.554   0.071   3.799 -1.6855  0.8444  0.0035
 2296WAT     H2 7100   2.635   0.129   3.685  2.0033 -1.4914  1.2623
 2297WAT      O 7101   3.615   5.650   4.921  0.9225  0.1189 -0.2520
 2297WAT     H1 7102   3.613   5.696   4.837  2.3638  0.1676 -0.2914
 2297WAT     H2 7103   3.683   5.584   4.910 -0.1209 -1.0824  0.2958
 2298WAT      O 7104   3.169   5.169   1.986  0.3029 -0.0747 -0.3581
 2298WAT     H1 7105   3.162   5.229   2.060  0.9332  0.6633 -0.8906
 2298WAT     H2 7106   3.094   5.110   1.997 -1.5940  2.0966 -0.9668
 2299WAT      O 7107   0.872   2.659   5.819  0.4688  0.0004  0.2296
 2299WAT     H1 7108   0.891   2.636   5.910  0.0248  3.7451  1.4186
 2299WAT     H2 7109   0.780   2.635   5.807  0.0227  1.0336  1.3966
 2300WAT      O 7110   3.206   5.386   3.059  0.0446  1.2446 -0.1639
 2300WAT     H1 7111   3.258   5.461   3.029  0.3102  1.2413  0.2746
 2300WAT     H2 7112   3.214   5.389   3.154 -0.2526  0.8767 -0.1282
 2301WAT      O 7113   3.526   2.127   0.157 -0.1417  0.2535  0.3856
 2301WAT     H1 7114   3.567   2.112   0.071 -1.8089  0.8863 -0.5546
 2301WAT     H2 7115   3.582   2.079   0.218  1.3920  0.2150 -0.9691
 2302WAT      O 7116   1.162   1.670   0.494 -0.1766  0.3231  0.5933
 2302WAT     H1 7117   1.103   1.644   0.565  1.1806  2.5634  2.6831
 2302WAT     H2 7118   1.119   1.744   0.453  0.2034  0.6155  0.7258
 2303WAT      O 7119   3.725   4.168   5.257 -0.8246  0.0169  0.0337
 2303WAT     H1 7120   3.629   4.173   5.263 -0.8633  1.0419 -1.2056
 2303WAT     H2 7121   3.754   4.259   5.258  0.1020 -0.2676 -0.2495
 2304WAT      O 7122   2.258   0.406   5.167  0.0066  0.1709  0.0251
 2304WAT     H1 7123   2.261   0.489   5.119 -1.2431  1.8469  2.6358
 2304WAT     H2 7124   2.165   0.383   5.167  0.1457 -0.4128  0.6099
 2305WAT      O 7125   1.853   2.436   3.622  0.1886  0.2860 -0.0463
 2305WAT     H1 7126   1.887   2.351   3.595  3.4100  0.9078  1.4617
 2305WAT     H2 7127   1.931   2.483   3.654 -1.7243  3.1642  0.7617
 2306WAT      O 7128   2.526   3.371   5.108  0.0945  0.1547  0.2453
 2306WAT     H1 7129   2.615   3.404   5.121  0.0310  0.8212 -0.8449
 2306WAT     H2 7130   2.474   3.451   5.094 -0.1376 -0.3276 -2.0895
 2307WAT      O 7131   1.310   3.225   5.576 -0.1986 -0.9723  0.6008
 2307WAT     H1 7132   1.278   3.178   5.499  0.3056 -1.5784  0.7488
 2307WAT     H2 7133   1.232   3.264   5.615 -1.0795 -3.6864  1.8136
 2308WAT      O 7134   0.822   2.489   4.546 -0.5917 -0.3823 -0.1266
 2308WAT     H1 7135   0.862   2.577   4.544  0.7681 -0.8138  2.4747
 2308WAT     H2 7136   0.875   2.438   4.486 -0.5882  0.2964 -0.7144
 2309WAT      O 7137   2.090   0.818   3.205 -0.1772 -0.5753  0.2400
 2309WAT     H1 7138   2.146   0.740   3.212  2.6467  1.2594 -0.0967
 2309WAT     H2 7139   2.093   0.841   3.112  0.9207  1.1280  0.6495
 2310WAT      O 7140   2.144   3.990   4.584 -0.2135  0.3146  0.0411
 2310WAT     H1 7141   2.167   3.992   4.492  0.1628 -3.0993 -0.0642
 2310WAT     H2 7142   2.226   4.007   4.630  0.3074 -1.0758 -0.3224
 2311WAT      O 7143   2.350   5.599   1.574 -0.4277  0.3417  0.2585
 2311WAT     H1 7144   2.363   5.534   1.504  1.1114  0.1776  0.6599
 2311WAT     H2 7145   2.256   5.616   1.573 -0.5385 -0.1527 -1.4135
 2312WAT      O 7146   2.828   0.024   2.826 -0.2602  0.3088  0.4790
 2312WAT     H1 7147   2.799   0.107   2.787  1.1786  0.5669 -0.0920
 2312WAT     H2 7148   2.903  -0.003   2.773 -0.3603 -1.0917  0.9995
 2313WAT      O 7149   4.295   1.858   3.085  0.2668 -0.2704 -0.3091
 2313WAT     H1 7150   4.290   1.785   3.147  0.7258  2.2300  2.9623
 2313WAT     H2 7151   4.388   1.865   3.063  0.2451 -0.5396 -0.4946
 2314WAT      O 7152   2.929   0.795   2.629 -0.1895  0.2524  0.3675
 2314WAT     H1 7153   2.888   0.788   2.543  0.6697  2.2559 -0.2607
 2314WAT     H2 7154   3.003   0.733   2.624 -1.5696 -1.4996  0.6193
 2315WAT      O 7155   2.450   5.434   4.926  0.3781  0.2864 -0.3529
 2315WAT     H1 7156   2.503   5.437   4.847 -0.8560 -1.4037 -1.3116
 2315WAT     H2 7157   2.362   5.456   4.897 -0.3714 -1.7482  0.2338
 2316WAT      O 7158   2.197   1.125   3.297 -0.8443  0.0569 -0.1584
 2316WAT     H1 7159   2.215   1.151   3.207 -0.9250  0.7842  0.0278
 2316WAT     H2 7160   2.118   1.072   3.291  0.0150 -1.1966 -0.6987
 2317WAT      O 7161   2.096   4.517   1.992  0.5057 -0.6805 -0.3636
 2317WAT     H1 7162   2.050   4.447   2.037 -1.4056  0.7570  0.0388
 2317WAT     H2 7163   2.155   4.554   2.058 -0.9052  0.1923  0.4474
 2318WAT      O 7164   3.395   0.921   1.486  0.1091 -0.6140 -0.1377
 2318WAT     H1 7165   3.345   0.937   1.405  1.0285 -0.9652 -0.7847
 2318WAT     H2 7166   3.466   0.863   1.459 -0.4127 -1.9572  1.2261
 2319WAT      O 7167   3.419   2.581   4.343  0.4468 -0.1266  0.4930
 2319WAT     H1 7168   3.502   2.611   4.306 -0.0503 -0.7665 -1.2355
 2319WAT     H2 7169   3.394   2.506   4.289 -1.8877  0.8389  0.1164
 2320WAT      O 7170   3.457   0.506   0.172 -0.0039 -0.3703  0.1017
 2320WAT     H1 7171   3.483   0.420   0.207  1.7193  0.6509  1.5057
 2320WAT     H2 7172   3.373   0.524   0.215  0.3428 -0.7235  0.9655
 2321WAT      O 7173   3.790   0.363   4.882  0.1671  0.2383 -0.1496
 2321WAT     H1 7174   3.746   0.325   4.958  1.4661  1.2704  1.1733
 2321WAT     H2 7175   3.725   0.357   4.812 -0.8852 -1.2020  0.8942
 2322WAT      O 7176   2.555   0.908   2.526  0.0105  0.1220 -0.0566
 2322WAT     H1 7177   2.627   0.909   2.463  0.9138 -0.0931  0.9392
 2322WAT     H2 7178   2.569   0.829   2.577  0.6211  1.4126  1.8735
 2323WAT      O 7179   3.975   2.811   4.226 -0.1278  0.4349 -0.0828
 2323WAT     H1 7180   3.998   2.727   4.266  0.2524  0.5807  0.0040
 2323WAT     H2 7181   3.981   2.796   4.132 -1.6267 -0.0864 -0.1258
 2324WAT      O 7182   2.201   0.165   0.311  0.0056 -0.2140 -0.5652
 2324WAT     H1 7183   2.235   0.214   0.237  1.0689 -1.4653 -0.9274
 2324WAT     H2 7184   2.255   0.192   0.385  0.0871 -0.2552 -0.6091
 2325WAT      O 7185   2.614   0.015   2.201 -0.3300  0.2507 -0.3489
 2325WAT     H1 7186   2.657   0.083   2.253  1.1977 -0.3849 -0.7291
 2325WAT     H2 7187   2.544  -0.018   2.257  0.3860  0.5482  0.7466
 2326WAT      O 7188   1.367   2.950   4.548 -0.1334  0.0066  0.6083
 2326WAT     H1 7189   1.283   2.996   4.548 -0.8993 -1.3516  0.1189
 2326WAT     H2 7190   1.432   3.019   4.536 -1.1685  1.0805  1.0124
 2327WAT      O 7191   4.104   2.700   5.632  0.2918 -0.6025 -0.0482
 2327WAT     H1 7192   4.009   2.702   5.621  0.2683 -2.7452 -0.6933
 2327WAT     H2 7193   4.117   2.681   5.725  0.2056  2.1257  0.6144
 2328WAT      O 7194   3.491   0.845   4.383  0.5128 -0.7444  0.4766
 2328WAT     H1 7195   3.527   0.805   4.462  2.7495  0.1720 -0.0016
 2328WAT     H2 7196   3.477   0.937   4.407  0.3839 -0.6506  0.0551
 2329WAT      O 7197   1.199   2.476   0.549 -0.6315 -0.1525  0.1156
 2329WAT     H1 7198   1.128   2.426   0.508  1.2431 -3.1785  0.2962
 2329WAT     H2 7199   1.166   2.496   0.636 -1.1315 -2.0140  0.4069
 2330WAT      O 7200   3.362   4.933   5.165  0.1793  0.0853 -0.3494
 2330WAT     H1 7201   3.362   5.028   5.175  0.5014  0.1352 -0.8146
 2330WAT     H2 7202   3.307   4.902   5.238 -0.5176  0.6634 -0.6126
 2331WAT      O 7203   1.584   2.859   5.665 -0.1214  0.5920 -0.3565
 2331WAT     H1 7204   1.642   2.915   5.716  0.9636 -0.9490  0.1632
 2331WAT     H2 7205   1.520   2.827   5.729  1.3070 -1.4318  0.1443
 2332WAT      O 7206   1.044   1.443   0.874  0.6840 -0.2567  0.0712
 2332WAT     H1 7207   1.036   1.507   0.945 -0.4970  0.5855 -0.7580
 2332WAT     H2 7208   1.074   1.363   0.916 -0.2352  0.1396  1.5567
 2333WAT      O 7209   3.342   0.936   5.523 -0.0309 -0.7029 -0.1696
 2333WAT     H1 7210   3.388   0.952   5.606 -1.6788  2.1616  0.3551
 2333WAT     H2 7211   3.296   0.853   5.536 -0.2221 -0.3288  1.8040
 2334WAT      O 7212   3.139   2.171   4.697 -0.5772  0.5785 -0.0515
 2334WAT     H1 7213   3.233   2.178   4.684 -0.3108  0.4604  1.6406
 2334WAT     H2 7214   3.117   2.246   4.753 -1.2713 -0.1169  0.6171
 2335WAT      O 7215   2.662   5.023   0.805 -0.2382 -0.1830  0.1788
 2335WAT     H1 7216   2.657   5.094   0.869  0.6800  0.8376 -0.8348
 2335WAT     H2 7217   2.572   4.993   0.796 -0.6663  0.9239  0.5660
 2336WAT      O 7218   0.002   2.357   5.678 -0.0330  0.0595 -0.1475
 2336WAT     H1 7219   0.055   2.366   5.599  0.9276 -1.1513  0.3285
 2336WAT     H2 7220  -0.071   2.300   5.652  0.4059 -0.5231 -0.1144
 2337WAT      O 7221   1.536   2.393   5.547 -0.0517  0.1474 -0.0307
 2337WAT     H1 7222   1.567   2.302   5.547  1.5552  0.6623  0.0833
 2337WAT     H2 7223   1.447   2.388   5.512 -0.5402 -1.6354  1.3091
 2338WAT      O 7224   3.439   2.278   4.513 -0.4417 -0.0659 -0.0657
 2338WAT     H1 7225   3.430   2.265   4.607  1.0845 -0.6642  0.0227
 2338WAT     H2 7226   3.370   2.342   4.491 -1.1718 -0.3356  1.3356
 2339WAT      O 7227   1.953   0.841   0.901  0.2475  0.2855  0.0133
 2339WAT     H1 7228   2.001   0.763   0.929  0.4787  0.9058  1.4755
 2339WAT     H2 7229   1.921   0.820   0.813  0.2382 -1.4777  0.3956
 2340WAT      O 7230   2.937   2.865   0.416  0.2161 -0.6559 -0.3752
 2340WAT     H1 7231   2.849   2.901   0.416  0.0570 -1.0397 -0.9990
 2340WAT     H2 7232   2.948   2.827   0.329  1.1601 -0.2039 -0.4691
 2341WAT      O 7233   1.095   1.499   2.069  0.2863 -0.4846 -0.2010
 2341WAT     H1 7234   1.184   1.533   2.060  0.8589 -1.6713  0.6965
 2341WAT     H2 7235   1.100   1.439   2.143 -0.5158 -3.0106 -2.0719
 2342WAT      O 7236   2.283   0.190   3.099 -0.1491 -0.2181 -0.0568
 2342WAT     H1 7237   2.342   0.156   3.166  0.3705  0.3658 -0.2052
 2342WAT     H2 7238   2.316   0.278   3.080 -1.2447  0.2379  0.0622
 2343WAT      O 7239   3.981   3.070   0.390 -0.0280 -0.0598  0.5151
 2343WAT     H1 7240   4.028   3.071   0.473 -0.4474  1.0967  0.7587
 2343WAT     H2 7241   3.943   3.157   0.383 -0.2972 -0.2569 -0.7272
 2344WAT      O 7242   4.474   4.560   5.071  1.1299 -0.5178 -0.1871
 2344WAT     H1 7243   4.462   4.467   5.048  2.1207 -0.4132 -1.2017
 2344WAT     H2 7244   4.492   4.559   5.165 -0.9535 -1.1515  0.2651
 2345WAT      O 7245   2.671   3.969   3.256  0.4523  0.6327  0.5451
 2345WAT     H1 7246   2.613   3.993   3.184  0.3610 -1.1440 -0.0224
 2345WAT     H2 7247   2.615   3.973   3.334  0.6333  2.8768  0.6388
 2346WAT      O 7248   3.555   4.944   4.858  0.3909 -0.2052  0.3466
 2346WAT     H1 7249   3.578   4.898   4.939  2.1275  1.9311  1.1431
 2346WAT     H2 7250   3.631   4.932   4.801 -0.4772 -0.9883 -0.6995
 2347WAT      O 7251   2.609   0.414   1.894 -0.3221  0.2809 -0.2627
 2347WAT     H1 7252   2.616   0.477   1.823 -0.3043  0.5488 -0.0239
 2347WAT     H2 7253   2.517   0.388   1.894 -0.1871 -0.2273 -0.8157
 2348WAT      O 7254   0.889   3.799   4.250  0.7413 -0.0281  0.4538
 2348WAT     H1 7255   0.905   3.878   4.197  0.3649  0.7860  1.5079
 2348WAT     H2 7256   0.905   3.828   4.340 -0.9362 -0.7273  1.0068
 2349WAT      O 7257   2.579   5.067   3.843  0.4861 -0.5742 -0.1519
 2349WAT     H1 7258   2.652   5.109   3.888  0.8514 -0.7468 -0.5860
 2349WAT     H2 7259   2.616   5.034   3.761 -0.6295  1.6978 -1.6816
 2350WAT      O 7260   3.127   0.623   4.058 -0.3210 -0.2553  0.5394
 2350WAT     H1 7261   3.185   0.683   4.105 -0.0980  1.0628 -1.3011
 2350WAT     H2 7262   3.039   0.645   4.090 -0.2444  1.0989 -0.0875
 2351WAT      O 7263   3.142   0.670   5.829 -0.3732  0.1983  0.2638
 2351WAT     H1 7264   3.063   0.624   5.801 -0.7387  0.7090  0.4238
 2351WAT     H2 7265   3.199   0.668   5.753 -0.3795 -0.5213  0.2740
 2352WAT      O 7266   4.887   3.183   1.803  0.2886 -0.0390  0.0600
 2352WAT     H1 7267   4.907   3.169   1.711 -1.9169  1.9404 -0.8204
 2352WAT     H2 7268   4.795   3.158   1.812 -0.2222  1.9576  1.1213
 2353WAT      O 7269   1.756   0.611   4.923 -0.0464  0.0399 -0.1332
 2353WAT     H1 7270   1.831   0.569   4.966  0.0112 -1.7015 -1.7702
 2353WAT     H2 7271   1.750   0.567   4.839 -1.9887  1.2338 -0.6798
 2354WAT      O 7272   1.933   1.358   4.805  0.0807  0.4976 -0.1250
 2354WAT     H1 7273   1.965   1.440   4.844 -0.4975  0.8248 -0.3172
 2354WAT     H2 7274   1.839   1.359   4.822 -0.1496  0.5199 -1.2808
 2355WAT      O 7275   4.507   0.690   0.956 -0.1089  0.5702  0.0334
 2355WAT     H1 7276   4.573   0.622   0.973 -0.0266  0.2453 -1.4257
 2355WAT     H2 7277   4.432   0.664   1.008  0.4432  0.1868  0.6596
 2356WAT      O 7278   4.119   3.016   5.484  0.5876 -0.1233 -0.2956
 2356WAT     H1 7279   4.139   2.924   5.463  0.3318 -0.1387 -0.4909
 2356WAT     H2 7280   4.147   3.027   5.575 -0.5472 -0.7686  0.1588
 2357WAT      O 7281   1.677   3.161   0.543  0.4027 -0.3896  0.1277
 2357WAT     H1 7282   1.765   3.198   0.551 -0.0368  1.1253 -1.4179
 2357WAT     H2 7283   1.681   3.078   0.592  1.7750  1.0632  2.6674
 2358WAT      O 7284   2.831   0.831   3.902  0.0227 -0.3568  0.2597
 2358WAT     H1 7285   2.916   0.815   3.860  0.0639 -0.8184  0.5089
 2358WAT     H2 7286   2.787   0.893   3.844  0.0939 -0.9507 -0.4540
 2359WAT      O 7287   1.595   0.256   3.255 -0.4176 -0.0371 -0.0147
 2359WAT     H1 7288   1.538   0.191   3.214 -1.3711  0.8338 -0.1178
 2359WAT     H2 7289   1.652   0.286   3.185 -0.9108  0.2297 -0.3086
 2360WAT      O 7290   1.824   1.812   4.773  0.1410  0.0651  0.1615
 2360WAT     H1 7291   1.770   1.802   4.852 -0.4321  0.3560 -0.1842
 2360WAT     H2 7292   1.805   1.901   4.743  1.4832  0.4907  0.5183
 2361WAT      O 7293   2.798   2.619   0.510 -0.0919  0.1902  0.1730
 2361WAT     H1 7294   2.879   2.632   0.461  0.3432 -2.4452  0.0600
 2361WAT     H2 7295   2.736   2.681   0.471  0.8174 -0.3641 -2.3207
 2362WAT      O 7296   4.141   2.073   3.050 -0.2002  0.5594  0.1960
 2362WAT     H1 7297   4.092   2.044   2.973 -1.3858 -1.3810  1.5976
 2362WAT     H2 7298   4.209   2.007   3.063  0.6241  1.3975  0.2800
 2363WAT      O 7299   3.494   3.839   4.795 -0.3615 -0.1155 -0.3763
 2363WAT     H1 7300   3.486   3.819   4.702  0.4608 -0.3170 -0.4116
 2363WAT     H2 7301   3.465   3.929   4.803  0.2043  0.1228 -0.9413
 2364WAT      O 7302   3.545   1.517   4.799  0.3630 -0.1271  0.0494
 2364WAT     H1 7303   3.484   1.587   4.775  3.4063  3.0734  0.8527
 2364WAT     H2 7304   3.512   1.485   4.883 -1.8555 -0.7497 -0.9792
 2365WAT      O 7305   2.962   1.322   0.309 -0.3708  0.7468  0.1846
 2365WAT     H1 7306   2.931   1.338   0.220  0.6304  4.3380  0.3092
 2365WAT     H2 7307   2.972   1.227   0.315 -2.4411  0.2066 -2.7906
 2366WAT      O 7308   4.335   1.504   3.033  0.0464  0.1269 -0.2614
 2366WAT     H1 7309   4.369   1.549   3.111  2.2174 -1.4837 -0.1773
 2366WAT     H2 7310   4.332   1.412   3.059 -0.4309 -0.2825 -1.6931
 2367WAT      O 7311   2.065   2.981   4.751  0.0893  0.1994 -0.0853
 2367WAT     H1 7312   2.023   2.902   4.786  1.4970 -0.9432 -0.8518
 2367WAT     H2 7313   2.073   3.039   4.827  0.7719 -1.1949  0.9616
 2368WAT      O 7314   2.258   2.506   3.478  0.0564  0.3123 -0.0211
 2368WAT     H1 7315   2.240   2.540   3.391 -0.2300  0.6232  0.1599
 2368WAT     H2 7316   2.347   2.537   3.498  0.8825 -1.3304 -0.9630
 2369WAT      O 7317   3.377   2.562   5.823 -0.2284  0.1765 -0.5253
 2369WAT     H1 7318   3.327   2.644   5.820  1.1864  1.4523  3.7256
 2369WAT     H2 7319   3.469   2.589   5.825  0.2860 -1.4818  0.8801
 2370WAT      O 7320   4.653   1.448   0.037 -0.0039 -0.3030  0.0183
 2370WAT     H1 7321   4.736   1.462   0.084 -0.0562  1.3133 -0.2959
 2370WAT     H2 7322   4.606   1.384   0.090  1.2212 -0.8484  0.4897
 2371WAT      O 7323   2.045   2.080   1.419 -0.7163 -0.4395  0.3632
 2371WAT     H1 7324   2.082   2.087   1.331 -1.1607  1.0629  0.2715
 2371WAT     H2 7325   1.983   2.007   1.413  1.2069 -2.1674  0.1830
 2372WAT      O 7326   1.733   4.532   1.426 -0.0564 -0.3874  0.0102
 2372WAT     H1 7327   1.786   4.516   1.504  1.0413 -1.0859 -0.8356
 2372WAT     H2 7328   1.791   4.508   1.353 -1.3491 -0.6104 -0.9819
 2373WAT      O 7329   3.546   2.708   1.042 -0.0001  0.3741 -0.5962
 2373WAT     H1 7330   3.455   2.699   1.011  0.4520 -1.4933 -1.4939
 2373WAT     H2 7331   3.570   2.798   1.019 -0.6870  0.0037 -3.0587
 2374WAT      O 7332   2.447   0.353   2.480  0.0691 -0.2883 -0.1990
 2374WAT     H1 7333   2.542   0.365   2.481 -0.0180  0.4341 -0.0781
 2374WAT     H2 7334   2.417   0.393   2.562 -0.2100 -1.7090  0.4162
 2375WAT      O 7335   2.201   1.279   2.640  0.4161 -0.1109 -0.5024
 2375WAT     H1 7336   2.240   1.193   2.629  1.7417  0.2680  0.8147
 2375WAT     H2 7337   2.210   1.297   2.734 -0.8946  0.9790 -0.5528
 2376WAT      O 7338   2.554   1.147   0.883 -0.3324  0.4270 -0.0638
 2376WAT     H1 7339   2.471   1.172   0.922 -0.9301  0.4069 -1.2818
 2376WAT     H2 7340   2.578   1.066   0.927 -1.5083 -0.1501 -0.4568
 2377WAT      O 7341   0.032   3.092   2.753 -0.1830  0.1867  0.1667
 2377WAT     H1 7342  -0.025   3.044   2.693  1.8447 -0.2169 -1.5414
 2377WAT     H2 7343   0.031   3.041   2.834 -0.1438 -1.2761 -0.7343
 2378WAT      O 7344   3.765   1.443   4.700  0.5175  0.3155 -0.3305
 2378WAT     H1 7345   3.794   1.373   4.758  2.3556  0.2936 -1.2339
 2378WAT     H2 7346   3.682   1.472   4.739  1.4906  0.0683  2.1074
 2379WAT      O 7347   2.520   2.850   0.726 -0.1543 -0.8246 -0.1023
 2379WAT     H1 7348   2.535   2.762   0.760  0.0427 -1.1608 -1.0208
 2379WAT     H2 7349   2.583   2.860   0.654 -0.8882 -0.3483 -0.7097
 2380WAT      O 7350   2.176   1.027   5.539 -0.0502 -0.0444  0.2835
 2380WAT     H1 7351   2.125   1.037   5.459 -3.1801  1.7263  2.2727
 2380WAT     H2 7352   2.141   0.948   5.580 -0.3279  0.4756  1.0724
 2381WAT      O 7353   4.687   1.473   5.588  0.0404  0.3363 -0.5330
 2381WAT     H1 7354   4.776   1.508   5.592 -0.5101  1.9483 -1.1825
 2381WAT     H2 7355   4.661   1.460   5.679  1.1311 -0.7228 -0.3556
 2382WAT      O 7356   1.563   1.750   1.104 -0.5059 -0.2971 -0.0431
 2382WAT     H1 7357   1.591   1.804   1.179 -0.3967 -0.2958 -0.0848
 2382WAT     H2 7358   1.476   1.783   1.083  0.4835  1.5695 -1.6269
 2383WAT      O 7359   2.782   2.401   0.360 -0.0233 -0.0887 -0.8236
 2383WAT     H1 7360   2.789   2.475   0.420  1.9292 -0.6851 -0.2155
 2383WAT     H2 7361   2.691   2.371   0.368  0.3967 -0.9415  2.9101
 2384WAT      O 7362   2.479   3.070   5.188 -0.0369  0.3229  0.0958
 2384WAT     H1 7363   2.501   3.158   5.219  1.4914  0.0177 -0.0029
 2384WAT     H2 7364   2.429   3.031   5.260 -1.8662  1.6697 -0.3778
 2385WAT      O 7365   2.898   0.451   4.981  0.3712  0.0247  0.5406
 2385WAT     H1 7366   2.844   0.502   5.041 -0.6498  0.0638 -0.3857
 2385WAT     H2 7367   2.972   0.421   5.034  1.5126  3.1835  0.9328
 2386WAT      O 7368   2.803   3.447   4.131 -0.0159 -0.4323 -0.1094
 2386WAT     H1 7369   2.843   3.404   4.207  2.9436  2.3361  0.0723
 2386WAT     H2 7370   2.737   3.505   4.170 -1.1672 -1.7234 -0.0470
 2387WAT      O 7371   4.954   1.479   0.709  0.6778  0.6193  0.0340
 2387WAT     H1 7372   4.885   1.416   0.687  0.8530 -0.3202  1.9212
 2387WAT     H2 7373   4.917   1.531   0.780  1.7594  0.3031  0.8597
 2388WAT      O 7374   2.750   1.816   0.141  0.0386 -0.0395 -0.1119
 2388WAT     H1 7375   2.796   1.732   0.148  0.1600  0.0786  0.6148
 2388WAT     H2 7376   2.688   1.803   0.069  0.6978 -0.4414 -0.6250
 2389WAT      O 7377   2.337   1.113   1.387  0.1049 -0.6311 -0.1444
 2389WAT     H1 7378   2.387   1.058   1.448  2.0325  0.5333 -0.5762
 2389WAT     H2 7379   2.255   1.130   1.432  1.8562  1.1229  2.7229
 2390WAT      O 7380   2.557   4.035   2.983 -0.0734  0.4843 -0.3851
 2390WAT     H1 7381   2.575   4.095   2.911 -0.1958 -0.0455 -0.8606
 2390WAT     H2 7382   2.590   3.950   2.954 -2.4096 -0.3255 -0.9325
 2391WAT      O 7383   2.200   4.668   2.796  0.0106  0.5539  0.2370
 2391WAT     H1 7384   2.242   4.582   2.800 -0.6090  0.2327  0.1525
 2391WAT     H2 7385   2.115   4.654   2.838 -0.7923  0.6901 -1.2642
 2392WAT      O 7386   2.351   5.209   1.874  0.7708 -0.1505 -0.4296
 2392WAT     H1 7387   2.383   5.121   1.896  0.3204 -0.6782 -1.7851
 2392WAT     H2 7388   2.431   5.257   1.851  1.0896  0.0029  0.8862
 2393WAT      O 7389   2.359   1.657   5.628 -0.1171 -0.0983  0.2555
 2393WAT     H1 7390   2.412   1.577   5.625  1.0542  0.6224  0.7189
 2393WAT     H2 7391   2.275   1.629   5.663  0.8206 -0.8828  2.0453
 2394WAT      O 7392   1.289   2.852   1.753 -0.7080  0.0983  0.2615
 2394WAT     H1 7393   1.342   2.790   1.702 -0.2354 -0.2075  1.1155
 2394WAT     H2 7394   1.268   2.806   1.834 -1.7870  0.4438  0.1896
 2395WAT      O 7395   4.373   1.073   1.239  0.1485  0.0777 -0.4241
 2395WAT     H1 7396   4.330   1.093   1.323 -0.0935 -0.5951 -0.3819
 2395WAT     H2 7397   4.302   1.043   1.183  0.4255 -0.1535 -0.6502
 2396WAT      O 7398   2.017   1.816   0.746 -0.0482  0.0551  0.1338
 2396WAT     H1 7399   1.971   1.732   0.742 -0.3299  0.2117  0.0213
 2396WAT     H2 7400   2.032   1.830   0.839 -1.2571  0.5451  0.2729
 2397WAT      O 7401   3.399   1.428   5.394  0.1871  0.1110  0.9954
 2397WAT     H1 7402   3.310   1.459   5.376  0.4157 -0.1155 -0.6694
 2397WAT     H2 7403   3.441   1.502   5.438 -0.0308  1.2982 -0.6840
 2398WAT      O 7404   2.505   5.626   5.244  0.8569 -0.6169 -0.4319
 2398WAT     H1 7405   2.490   5.711   5.285 -1.1504 -0.6238 -1.0971
 2398WAT     H2 7406   2.419   5.597   5.215  0.8667 -4.2419  2.3309
 2399WAT      O 7407   0.289   2.461   4.410  0.1551  0.7535 -0.4801
 2399WAT     H1 7408   0.372   2.509   4.410  0.9188 -0.4064  1.4530
 2399WAT     H2 7409   0.224   2.525   4.439  0.7022  1.2597 -0.3559
 2400WAT      O 7410   4.506   2.149   1.675  0.1284  0.3595  0.0751
 2400WAT     H1 7411   4.569   2.191   1.734 -0.2958  0.6413  0.3380
 2400WAT     H2 7412   4.500   2.059   1.708  1.1035  0.0537 -0.5426
 2401WAT      O 7413   4.585   2.157   2.590 -0.5298  0.0128 -0.3453
 2401WAT     H1 7414   4.496   2.131   2.613 -2.3017  2.1982 -3.8014
 2401WAT     H2 7415   4.629   2.076   2.567 -1.6125 -1.1253  1.4037
 2402WAT      O 7416   2.185   5.266   2.920 -0.2456  0.0955 -0.1718
 2402WAT     H1 7417   2.129   5.191   2.899  0.4235 -0.6141  0.5232
 2402WAT     H2 7418   2.235   5.238   2.996  2.1296  0.1564 -1.6134
 2403WAT      O 7419   2.442   5.124   2.235  0.6201  0.1852  0.1918
 2403WAT     H1 7420   2.484   5.210   2.229 -0.4771  0.7391  0.2903
 2403WAT     H2 7421   2.349   5.143   2.237  0.3245 -1.0534 -0.5692
 2404WAT      O 7422   3.529   1.091   3.542  0.4536  0.3618  0.0414
 2404WAT     H1 7423   3.543   1.155   3.613  0.3795  0.4157  0.0086
 2404WAT     H2 7424   3.434   1.074   3.544  0.6444 -0.6954  0.8608
 2405WAT      O 7425   4.394   3.494   0.559  0.5859 -0.3062  0.7095
 2405WAT     H1 7426   4.319   3.493   0.500  0.1676  3.3500  0.9652
 2405WAT     H2 7427   4.367   3.440   0.634 -1.1680 -0.2795  0.1298
 2406WAT      O 7428   2.797   2.766   4.389 -0.5127 -0.1709 -0.5626
 2406WAT     H1 7429   2.845   2.779   4.470 -0.0610  1.8024 -1.0965
 2406WAT     H2 7430   2.863   2.733   4.327 -0.4370  0.0701 -0.6101
 2407WAT      O 7431   3.444   2.329   4.153 -0.0373  0.7388 -0.0039
 2407WAT     H1 7432   3.391   2.349   4.076  1.8374  0.4911 -1.4373
 2407WAT     H2 7433   3.396   2.258   4.197  0.0680 -0.9175 -2.3598
 2408WAT      O 7434   3.148   5.039   3.330  0.3002 -0.5688  0.0038
 2408WAT     H1 7435   3.224   4.985   3.351  0.6394 -0.0948  0.0209
 2408WAT     H2 7436   3.174   5.127   3.358  0.4290 -0.0734 -1.5823
 2409WAT      O 7437   3.322   1.327   3.779 -0.4420  0.2650 -0.2198
 2409WAT     H1 7438   3.417   1.330   3.762 -0.3133 -0.4290  0.3234
 2409WAT     H2 7439   3.310   1.249   3.833 -1.4710 -0.2510 -1.1500
 2410WAT      O 7440   3.056   5.297   4.146 -0.3287 -0.1411  0.2074
 2410WAT     H1 7441   2.964   5.316   4.125 -0.2821 -1.5528 -1.5107
 2410WAT     H2 7442   3.054   5.211   4.186  0.1420  0.3819  1.3891
 2411WAT      O 7443   2.141   3.323   5.516 -0.0561 -0.4438  0.3787
 2411WAT     H1 7444   2.151   3.347   5.424  1.6083 -1.3078  0.2871
 2411WAT     H2 7445   2.094   3.396   5.555 -0.4659  0.1055 -1.0811
 2412WAT      O 7446   0.354   4.098   3.642 -0.5042  0.4087  0.1494
 2412WAT     H1 7447   0.363   4.003   3.631 -1.0543  0.3915 -0.2199
 2412WAT     H2 7448   0.314   4.109   3.728 -0.4423  0.3018  0.1911
 2413WAT      O 7449   3.244   2.758   5.260  0.2419 -0.3230  0.9229
 2413WAT     H1 7450   3.323   2.804   5.232  0.7672 -2.1359 -0.8755
 2413WAT     H2 7451   3.190   2.755   5.181 -0.7206 -0.8755  1.5870
 2414WAT      O 7452   2.133   3.266   4.737  0.2294 -0.0623  0.5780
 2414WAT     H1 7453   2.204   3.213   4.774  1.0408 -0.5453 -1.5307
 2414WAT     H2 7454   2.178   3.341   4.698 -0.6080  0.5168  0.7172
 2415WAT      O 7455   4.520   1.291   4.147  0.4714 -0.2968  0.1930
 2415WAT     H1 7456   4.522   1.210   4.095  1.1957 -0.6749  0.7923
 2415WAT     H2 7457   4.612   1.307   4.169  0.1355 -0.3901  1.7283
 2416WAT      O 7458   3.564   1.757   1.800  0.8850  0.4701 -0.4516
 2416WAT     H1 7459   3.607   1.672   1.793  0.1783  0.1450 -0.8704
 2416WAT     H2 7460   3.512   1.751   1.880  2.3059  1.1895  0.5691
 2417WAT      O 7461   3.535   2.807   2.341  0.1705  0.5607  0.4277
 2417WAT     H1 7462   3.593   2.732   2.356  0.6880  0.9366  0.3545
 2417WAT     H2 7463   3.455   2.785   2.387  0.3243 -0.0284  0.4270
 2418WAT      O 7464   2.707   0.305   2.986 -0.6086  0.4760  0.0155
 2418WAT     H1 7465   2.690   0.396   3.009 -1.0348  0.0589  1.5191
 2418WAT     H2 7466   2.712   0.304   2.891 -0.6609  2.0542 -0.0246
 2419WAT      O 7467   2.317   2.126   1.084 -0.1410  0.6738 -0.2246
 2419WAT     H1 7468   2.325   2.129   0.989 -0.8796 -2.5160 -0.5110
 2419WAT     H2 7469   2.223   2.136   1.101 -0.0966  0.5616  0.1047
 2420WAT      O 7470   4.561   1.879   4.939  0.0776 -0.1888  0.1877
 2420WAT     H1 7471   4.645   1.921   4.956 -0.7119  1.2115  0.8165
 2420WAT     H2 7472   4.556   1.808   5.003  0.3925  0.2860  0.7411
 2421WAT      O 7473   4.423   1.095   2.710  0.0410  0.1840  0.1955
 2421WAT     H1 7474   4.428   1.006   2.743 -0.5453  0.0241 -0.1315
 2421WAT     H2 7475   4.353   1.136   2.761  1.5045  1.0343  1.6371
 2422WAT      O 7476   0.628   2.780   3.541  0.7895 -0.2177  0.0971
 2422WAT     H1 7477   0.675   2.697   3.548  2.4236  0.3349 -2.6873
 2422WAT     H2 7478   0.697   2.847   3.548 -0.2062  0.8097  0.2704
 2423WAT      O 7479   1.891   1.948   5.192  0.2255 -0.1447 -0.3757
 2423WAT     H1 7480   1.929   2.036   5.195  0.0033 -0.0695  0.8134
 2423WAT     H2 7481   1.798   1.962   5.212  0.6028 -0.8402  2.3381
 2424WAT      O 7482   1.768   1.229   0.900 -0.0054 -0.3551 -0.0051
 2424WAT     H1 7483   1.692   1.172   0.892 -1.8914  1.5733  2.5114
 2424WAT     H2 7484   1.732   1.315   0.923  2.9224  0.5225  1.9516
 2425WAT      O 7485   2.973   0.596   3.632  0.4119  0.1171  0.2850
 2425WAT     H1 7486   3.027   0.646   3.693  1.4632 -0.0051 -0.5296
 2425WAT     H2 7487   3.031   0.528   3.599  0.2709  0.9914 -1.8750
 2426WAT      O 7488   2.923   4.644   5.476 -0.6620 -0.0451 -0.1204
 2426WAT     H1 7489   2.912   4.724   5.527  1.1789 -0.2545  0.7056
 2426WAT     H2 7490   2.952   4.673   5.390 -0.7558  0.2156 -0.0625
 2427WAT      O 7491   2.573   5.502   0.898 -0.3069  0.0457  0.2899
 2427WAT     H1 7492   2.626   5.490   0.977 -1.2735 -3.5714  0.5354
 2427WAT     H2 7493   2.483   5.510   0.930 -0.6447 -0.8547 -0.4132
 2428WAT      O 7494   3.957   1.326   1.922  0.6524  0.3377  0.0451
 2428WAT     H1 7495   3.974   1.420   1.917 -0.4057  0.5516  0.3203
 2428WAT     H2 7496   3.906   1.306   1.844  1.1125 -0.0711 -0.1579
 2429WAT      O 7497   2.662   1.591   4.043  0.6651 -0.0016  0.0746
 2429WAT     H1 7498   2.661   1.675   4.089 -0.1484  0.4021 -0.6713
 2429WAT     H2 7499   2.573   1.556   4.055  0.5836 -0.1097 -0.7853
 2430WAT      O 7500   4.907   4.110   4.567 -0.4270  0.5122 -0.0030
 2430WAT     H1 7501   4.890   4.025   4.606 -1.8416  0.3369 -0.9350
 2430WAT     H2 7502   4.824   4.158   4.577 -0.3367  0.9973 -1.3934
 2431WAT      O 7503   3.350   3.311   4.283  0.3449 -0.2755  0.1079
 2431WAT     H1 7504   3.300   3.380   4.240 -0.4946 -1.2416 -0.5032
 2431WAT     H2 7505   3.439   3.322   4.251 -0.0667 -0.3303 -1.0885
 2432WAT      O 7506   1.589   1.319   3.920 -0.1457 -0.0278 -0.3596
 2432WAT     H1 7507   1.660   1.263   3.953 -0.8640  0.5806  2.5312
 2432WAT     H2 7508   1.509   1.273   3.946 -0.7460  1.6706  1.0011
 2433WAT      O 7509   1.284   2.278   3.128  0.6313  0.0959 -0.3126
 2433WAT     H1 7510   1.232   2.199   3.110  0.1207  0.4905 -0.5987
 2433WAT     H2 7511   1.340   2.253   3.201 -0.1618 -0.2659  0.1953
 2434WAT      O 7512   1.752   1.350   2.084 -0.1030 -0.4265  0.0738
 2434WAT     H1 7513   1.834   1.307   2.061 -0.5859 -1.2094 -0.2077
 2434WAT     H2 7514   1.684   1.287   2.061 -0.9012  0.8963 -1.4049
 2435WAT      O 7515   1.052   3.877   1.940  1.2615  0.3986 -0.3176
 2435WAT     H1 7516   1.106   3.802   1.963 -0.0837 -0.2156  0.9393
 2435WAT     H2 7517   1.021   3.912   2.023  0.5678  1.3870 -0.9603
 2436WAT      O 7518   2.506   1.208   2.481 -0.3602 -0.3056 -0.4132
 2436WAT     H1 7519   2.504   1.235   2.573  0.4426  0.5792 -0.6483
 2436WAT     H2 7520   2.440   1.263   2.439  0.2939  0.3215 -0.6310
 2437WAT      O 7521   1.969   1.776   1.754 -0.0306 -0.2397  0.0424
 2437WAT     H1 7522   1.894   1.776   1.813  1.1035 -0.9837  1.5244
 2437WAT     H2 7523   1.980   1.685   1.728  1.0584 -0.3200  0.7543
 2438WAT      O 7524   3.330   1.081   1.783  0.2384  0.1846 -0.1071
 2438WAT     H1 7525   3.364   1.169   1.770  1.1455 -0.1596 -0.1095
 2438WAT     H2 7526   3.306   1.052   1.694 -0.8295  0.7165 -0.0118
 2439WAT      O 7527   4.565   1.488   2.647 -0.6919  0.1731 -0.1615
 2439WAT     H1 7528   4.571   1.539   2.727  1.0994 -0.3154  0.0615
 2439WAT     H2 7529   4.620   1.534   2.584 -0.0705 -0.7691 -0.3368
 2440WAT      O 7530   2.937   0.162   3.014 -0.1994 -0.1542 -0.2008
 2440WAT     H1 7531   2.902   0.112   2.940 -0.4802  0.8084 -0.7304
 2440WAT     H2 7532   2.880   0.238   3.022  0.1862  0.0645  0.6313
 2441WAT      O 7533   3.494   0.788   0.218  0.1410 -0.5467 -0.5717
 2441WAT     H1 7534   3.520   0.698   0.197  0.3476 -0.8522  0.8601
 2441WAT     H2 7535   3.409   0.779   0.261  1.1020 -0.3109  1.4895
 2442WAT      O 7536   2.326   2.823   2.377  0.2213  0.2361 -0.0886
 2442WAT     H1 7537   2.310   2.830   2.283  1.2675  0.0088 -0.2981
 2442WAT     H2 7538   2.361   2.909   2.402 -1.5761  0.8653  0.4398
 2443WAT      O 7539   2.312   1.283   4.681 -0.3753 -0.4998 -0.0385
 2443WAT     H1 7540   2.278   1.366   4.648 -2.0631 -0.6565  1.2124
 2443WAT     H2 7541   2.328   1.231   4.602 -0.4786  0.5595 -0.7723
 2444WAT      O 7542   2.927   0.383   2.314  0.4677 -0.6033 -0.3334
 2444WAT     H1 7543   3.000   0.402   2.374  0.0732 -0.8412  0.2239
 2444WAT     H2 7544   2.970   0.363   2.230  1.1794 -2.5065  0.4122
 2445WAT      O 7545   2.925   1.151   3.491 -0.6449  0.5518  0.1172
 2445WAT     H1 7546   2.839   1.192   3.484 -1.1920 -0.0299  2.4701
 2445WAT     H2 7547   2.977   1.213   3.542  0.0543  0.4800 -0.4906
 2446WAT      O 7548   2.726   3.335   1.017  0.0518  0.2056 -0.2710
 2446WAT     H1 7549   2.746   3.244   1.041  0.2311  0.6593  1.4144
 2446WAT     H2 7550   2.633   3.333   0.995 -0.8109  0.1461  2.9041
 2447WAT      O 7551   3.420   0.791   0.528  0.1844  0.1460  0.1392
 2447WAT     H1 7552   3.344   0.817   0.475  1.1585 -0.4841 -1.6244
 2447WAT     H2 7553   3.402   0.700   0.551 -0.0512  0.3014  0.5915
 2448WAT      O 7554   3.266   0.648   1.861  0.1727 -0.6805 -0.0810
 2448WAT     H1 7555   3.188   0.692   1.828  0.4690  0.5108  0.7155
 2448WAT     H2 7556   3.235   0.594   1.933  0.0766 -0.1654  0.2708
 2449WAT      O 7557   1.873   0.591   3.375  0.5507  0.0132 -0.3768
 2449WAT     H1 7558   1.891   0.501   3.349 -0.4102 -0.2887 -0.0143
 2449WAT     H2 7559   1.877   0.640   3.292  0.2988 -0.4895 -0.6941
 2450WAT      O 7560   2.986   5.047   4.243  0.4171 -0.2768 -0.0206
 2450WAT     H1 7561   2.959   4.956   4.233 -0.7378 -0.0196  0.5902
 2450WAT     H2 7562   2.996   5.058   4.338  2.2031 -0.2094 -0.1847
 2451WAT      O 7563   2.655   3.357   3.389  0.1711  0.0160  0.4733
 2451WAT     H1 7564   2.599   3.302   3.444  1.5420 -0.4848  1.4268
 2451WAT     H2 7565   2.737   3.309   3.382  1.3795  1.8469  1.2285
 2452WAT      O 7566   3.065   5.056   1.564 -0.3251  0.6968 -0.0165
 2452WAT     H1 7567   3.056   4.979   1.507  2.0385 -0.8504  1.4880
 2452WAT     H2 7568   3.140   5.103   1.529 -1.2024  1.8549 -0.3834
 2453WAT      O 7569   3.494   1.427   5.102 -0.1265  0.2428 -0.4717
 2453WAT     H1 7570   3.459   1.439   5.190 -0.9387  1.1420 -0.8985
 2453WAT     H2 7571   3.440   1.359   5.063  0.3036 -0.2343 -0.2511
 2454WAT      O 7572   2.602   0.822   2.985 -0.1043  0.7787  0.2150
 2454WAT     H1 7573   2.574   0.911   3.003  0.6861  1.2149 -0.6254
 2454WAT     H2 7574   2.693   0.830   2.958 -0.4807 -0.0669 -1.4886
 2455WAT      O 7575   1.990   1.543   0.379 -0.0959  0.0794 -0.3758
 2455WAT     H1 7576   1.972   1.593   0.459  1.1497 -1.6098  1.0292
 2455WAT     H2 7577   1.904   1.527   0.341 -0.7074  0.9923  0.5629
 2456WAT      O 7578   2.140   0.804   2.935  0.7467 -0.6009 -0.1669
 2456WAT     H1 7579   2.046   0.790   2.930  0.3002  1.2859  1.9153
 2456WAT     H2 7580   2.157   0.876   2.874  0.8112 -0.7432 -0.3192
 2457WAT      O 7581   1.784   1.342   3.160 -0.0252  0.3089  0.1932
 2457WAT     H1 7582   1.717   1.370   3.098 -0.1878  0.0869  0.2703
 2457WAT     H2 7583   1.739   1.338   3.244 -0.5261 -2.0962 -0.1195
 2458WAT      O 7584   1.672   1.176   5.276  0.5159  0.1745  0.5419
 2458WAT     H1 7585   1.626   1.106   5.230 -0.2974 -0.6550  2.4859
 2458WAT     H2 7586   1.759   1.141   5.293  0.6934  0.3363 -0.0191
 2459WAT      O 7587   0.475   3.550   0.968 -0.1529  0.4712  0.1368
 2459WAT     H1 7588   0.411   3.614   0.937  0.1988  0.5235 -0.4866
 2459WAT     H2 7589   0.555   3.570   0.921  0.0446 -0.2376  0.1546
 2460WAT      O 7590   0.785   1.686   0.882 -0.0703  0.0474 -0.3253
 2460WAT     H1 7591   0.742   1.675   0.967  1.3959 -0.8451  0.3258
 2460WAT     H2 7592   0.720   1.733   0.829 -0.8950  0.8926  1.3628
 2461WAT      O 7593   2.880   0.697   4.117  0.1154  0.0696  0.4286
 2461WAT     H1 7594   2.790   0.668   4.132  0.1857 -0.7650 -0.6643
 2461WAT     H2 7595   2.871   0.772   4.058  0.0526  1.1217  1.7270
 2462WAT      O 7596   4.130   1.804   3.785  0.1284  0.3356 -0.2111
 2462WAT     H1 7597   4.041   1.810   3.752  0.2727 -0.1569 -0.7033
 2462WAT     H2 7598   4.130   1.725   3.839  0.4624 -0.1233 -0.8629
 2463WAT      O 7599   2.838   0.815   3.449 -0.0166  0.0947 -0.3688
 2463WAT     H1 7600   2.904   0.878   3.419  1.0758 -1.2778 -0.9905
 2463WAT     H2 7601   2.881   0.769   3.521 -1.0673  0.5210  0.5506
 2464WAT      O 7602   2.900   0.691   2.090 -0.1407  0.0105 -0.3316
 2464WAT     H1 7603   2.807   0.696   2.064 -0.1774  0.1955 -0.1714
 2464WAT     H2 7604   2.939   0.770   2.051 -0.0280 -0.1212 -0.4863
 2465WAT      O 7605   3.319   5.631   3.060  0.3861  0.2228  0.4369
 2465WAT     H1 7606   3.303   5.717   3.097 -0.2272  0.6816 -0.8376
 2465WAT     H2 7607   3.374   5.648   2.984  1.7767 -0.7135  1.1978
 2466WAT      O 7608   2.067   1.348   3.466  0.0625 -0.3247  0.6223
 2466WAT     H1 7609   2.091   1.322   3.555  0.5756 -1.3831  0.1971
 2466WAT     H2 7610   2.125   1.297   3.410  1.9755  2.6234 -0.3127
 2467WAT      O 7611   4.094   2.102   2.044 -0.2708  0.2461 -0.0786
 2467WAT     H1 7612   4.047   2.185   2.042  0.4281  0.6930  0.9892
 2467WAT     H2 7613   4.027   2.037   2.064 -0.9090  0.4572 -1.4031
 2468WAT      O 7614   3.861   1.521   2.422 -0.1760 -0.0401 -0.1405
 2468WAT     H1 7615   3.907   1.551   2.500 -0.7919  0.8094 -0.0904
 2468WAT     H2 7616   3.768   1.527   2.446 -0.3739  0.3930 -0.9966
 2469WAT      O 7617   1.638   4.266   2.022  0.6544  0.0072 -0.0564
 2469WAT     H1 7618   1.571   4.211   1.981  1.6062 -2.3790  1.3958
 2469WAT     H2 7619   1.719   4.242   1.976  1.0202  0.5257  0.3097
 2470WAT      O 7620   2.609   1.864   1.673 -0.1242  0.1781  0.3572
 2470WAT     H1 7621   2.687   1.818   1.643 -0.7744  0.5457 -2.1361
 2470WAT     H2 7622   2.629   1.957   1.662 -0.2401  0.3657  1.5712
 2471WAT      O 7623   1.291   1.774   5.565  0.4289  0.2143 -0.5425
 2471WAT     H1 7624   1.248   1.755   5.649  0.4977  2.0321 -0.0593
 2471WAT     H2 7625   1.378   1.806   5.590  0.4266  0.8195 -1.2917
 2472WAT      O 7626   4.444   3.351   1.730 -0.0393  0.1232 -0.3775
 2472WAT     H1 7627   4.443   3.434   1.682  0.7275 -0.6764 -1.8084
 2472WAT     H2 7628   4.399   3.289   1.674  0.3166 -0.6899  0.2029
 2473WAT      O 7629   2.177   5.068   3.504 -0.4032  0.4304 -0.3548
 2473WAT     H1 7630   2.145   5.071   3.594  0.9654 -2.0528  0.3220
 2473WAT     H2 7631   2.130   4.994   3.465  1.9870 -1.2548 -0.2816
 2474WAT      O 7632   2.802   2.623   2.817 -0.6786 -0.1842 -0.2423
 2474WAT     H1 7633   2.764   2.630   2.904  0.3295 -1.8661  0.3751
 2474WAT     H2 7634   2.743   2.673   2.761 -1.7717  0.2827  1.2632
 2475WAT      O 7635   3.823   2.624   2.198 -0.2329  0.5013 -0.4554
 2475WAT     H1 7636   3.761   2.589   2.261  1.8720 -0.9951  0.8974
 2475WAT     H2 7637   3.769   2.645   2.121 -2.3846 -0.7642  0.6073
 2476WAT      O 7638   2.155   3.679   3.028 -0.0294 -0.2112 -0.3110
 2476WAT     H1 7639   2.161   3.602   3.084  2.3037 -0.4083 -0.7452
 2476WAT     H2 7640   2.068   3.673   2.989 -0.1147 -2.3108  0.0969
 2477WAT      O 7641   4.233   3.831   1.279 -0.4968  0.0919 -0.1605
 2477WAT     H1 7642   4.247   3.844   1.373  1.0929  0.8042 -0.4600
 2477WAT     H2 7643   4.223   3.737   1.269  3.2974 -0.4950  0.3145
 2478WAT      O 7644   1.280   2.003   1.875 -0.4432  0.2406 -0.2971
 2478WAT     H1 7645   1.355   2.022   1.819  0.7047  0.5101  1.2862
 2478WAT     H2 7646   1.253   1.914   1.850 -1.3489  1.1010 -2.7380
 2479WAT      O 7647   3.181   4.155   3.018  0.0158 -0.0839  0.2578
 2479WAT     H1 7648   3.273   4.129   3.016  0.1092  0.2584 -0.2371
 2479WAT     H2 7649   3.180   4.243   2.980 -0.5464 -0.1968 -0.0107
 2480WAT      O 7650   3.257   4.447   3.992 -0.0893  0.0979  0.5612
 2480WAT     H1 7651   3.241   4.492   3.909  0.3926 -0.0654  0.3752
 2480WAT     H2 7652   3.291   4.515   4.050 -1.0463  0.3596  0.8378
 2481WAT      O 7653   1.464   4.995   3.926 -0.0479 -0.3667  0.4270
 2481WAT     H1 7654   1.430   4.961   4.009 -2.3807  2.1186  0.6151
 2481WAT     H2 7655   1.392   4.982   3.864 -0.2011  2.0598  0.0061
 2482WAT      O 7656   2.659   4.300   0.659 -0.1496  0.1021 -0.2870
 2482WAT     H1 7657   2.583   4.269   0.710 -0.1398  0.4304 -0.0737
 2482WAT     H2 7658   2.710   4.220   0.642 -0.6609 -0.1592 -0.6360
 2483WAT      O 7659   2.970   1.347   3.722 -0.7662 -0.3765 -0.7565
 2483WAT     H1 7660   2.903   1.350   3.791  1.0455 -0.6687  1.1230
 2483WAT     H2 7661   3.040   1.293   3.759  2.0150  2.6496 -1.1627
 2484WAT      O 7662   2.830   5.260   2.506  0.1308 -0.1014 -0.2733
 2484WAT     H1 7663   2.780   5.333   2.544  0.6949  0.5200 -0.7014
 2484WAT     H2 7664   2.789   5.246   2.420  0.0103 -0.3108 -0.1836
 2485WAT      O 7665   3.946   1.369   5.438  0.3642  0.7336 -0.1300
 2485WAT     H1 7666   3.874   1.341   5.382  1.1020 -0.1777 -0.6370
 2485WAT     H2 7667   3.915   1.351   5.527 -0.4117  1.2734 -0.2736
 2486WAT      O 7668   1.086   1.766   3.823 -0.3521 -0.3252 -0.5131
 2486WAT     H1 7669   1.090   1.857   3.851 -1.1125 -0.8832  1.5823
 2486WAT     H2 7670   0.993   1.743   3.824 -0.1927 -1.0816 -1.2128
 2487WAT      O 7671   3.423   4.877   4.024  0.6449  0.2665  0.0192
 2487WAT     H1 7672   3.419   4.967   4.055 -0.8251  0.4978 -0.7546
 2487WAT     H2 7673   3.349   4.869   3.963  1.7587 -0.9723 -1.2263
 2488WAT      O 7674   2.962   0.133   0.834 -0.0218  0.5600 -0.1094
 2488WAT     H1 7675   3.019   0.128   0.757 -0.5887 -2.0250 -0.4762
 2488WAT     H2 7676   3.002   0.073   0.897 -1.2993  0.1455  0.3440
 2489WAT      O 7677   1.939   2.255   5.184 -0.2883  0.0747 -0.3973
 2489WAT     H1 7678   1.865   2.292   5.232 -0.0630 -1.7727  1.4945
 2489WAT     H2 7679   2.015   2.271   5.240  0.0539 -1.7371 -0.2888
 2490WAT      O 7680   1.865   5.198   4.467  0.4229  0.5400 -0.4397
 2490WAT     H1 7681   1.846   5.227   4.378 -2.2977  1.4424  0.3366
 2490WAT     H2 7682   1.796   5.134   4.487  1.5672 -0.3999  0.7107
 2491WAT      O 7683   1.963   3.596   3.749  0.3536 -0.4342  0.5525
 2491WAT     H1 7684   2.043   3.544   3.736  1.1696  0.8313  0.2466
 2491WAT     H2 7685   1.991   3.686   3.730 -0.5001  0.4061  2.9714
 2492WAT      O 7686   1.455   3.966   4.953  0.0261 -0.1159  0.3594
 2492WAT     H1 7687   1.492   4.053   4.942  2.0687 -1.0702 -1.1086
 2492WAT     H2 7688   1.523   3.917   5.000 -0.4542 -1.2553 -0.0885
 2493WAT      O 7689   1.622   0.850   0.983 -0.1609 -0.1967 -0.2271
 2493WAT     H1 7690   1.598   0.835   1.074 -0.1967  0.1655 -0.1730
 2493WAT     H2 7691   1.711   0.885   0.987 -0.6823  1.2179 -0.2125
 2494WAT      O 7692   3.449   5.493   0.790  0.2228  0.7665 -0.0841
 2494WAT     H1 7693   3.441   5.407   0.832  1.9722  0.5902 -0.0241
 2494WAT     H2 7694   3.382   5.493   0.721  0.3609 -0.7519 -0.2448
 2495WAT      O 7695   3.318   2.207   0.707 -0.0080 -0.4498 -0.0574
 2495WAT     H1 7696   3.303   2.155   0.629 -1.6284  1.8023 -1.3818
 2495WAT     H2 7697   3.345   2.144   0.774  1.6889 -2.4323 -2.4368
 2496WAT      O 7698   3.164   4.007   2.721  0.3144  0.0385  0.4422
 2496WAT     H1 7699   3.162   4.033   2.813 -0.9989  0.3746  0.3379
 2496WAT     H2 7700   3.257   3.999   2.701  0.7198  1.9992  1.2487
 2497WAT      O 7701   4.104   4.507   1.566 -0.1583  0.2626 -0.1970
 2497WAT     H1 7702   4.054   4.586   1.547  1.3413  1.1242 -0.7395
 2497WAT     H2 7703   4.171   4.504   1.497 -1.3903 -2.6066 -1.4632
 2498WAT      O 7704   2.201   4.863   2.047  0.1075  0.5154 -0.2888
 2498WAT     H1 7705   2.192   4.938   2.107 -1.3694  0.8767 -0.9217
 2498WAT     H2 7706   2.195   4.786   2.104 -1.1825  0.8535  0.0699
 2499WAT      O 7707   1.484   3.372   2.226  0.5063 -0.7150 -0.0406
 2499WAT     H1 7708   1.469   3.465   2.240 -3.1343 -1.0338 -0.8889
 2499WAT     H2 7709   1.532   3.367   2.144 -0.8120  0.4295 -0.9205
 2500WAT      O 7710   4.094   5.079   0.570 -0.2357 -0.3340  0.4695
 2500WAT     H1 7711   4.050   5.001   0.603 -0.5005  0.0492  1.0187
 2500WAT     H2 7712   4.028   5.148   0.573 -0.4754 -0.4157 -1.4604
 2501WAT      O 7713   4.143   2.490   3.170 -0.5568 -0.0861  0.3462
 2501WAT     H1 7714   4.218   2.544   3.142 -0.4915 -0.8857 -1.1274
 2501WAT     H2 7715   4.107   2.456   3.088 -3.6912  1.7160  0.8068
 2502WAT      O 7716   1.285   1.688   2.372 -0.6025 -0.4052 -0.9182
 2502WAT     H1 7717   1.192   1.676   2.354 -0.7585 -1.1782  0.2819
 2502WAT     H2 7718   1.304   1.777   2.342 -1.4460 -0.6298 -2.2152
 2503WAT      O 7719   1.045   3.950   2.648  0.0429 -0.8437  0.1978
 2503WAT     H1 7720   1.008   3.959   2.736  0.2264 -1.7338  0.3830
 2503WAT     H2 7721   1.029   4.034   2.606 -1.8914 -1.0717  0.3861
 2504WAT      O 7722   4.240   2.544   3.540  0.1195 -0.0929  0.2798
 2504WAT     H1 7723   4.171   2.586   3.488 -1.1136 -0.8358  1.2493
 2504WAT     H2 7724   4.280   2.616   3.589 -1.5847  0.1099  1.4855
 2505WAT      O 7725   3.691   0.744   0.760 -0.2861  0.9822 -0.2476
 2505WAT     H1 7726   3.754   0.781   0.822 -0.8294  2.3673 -0.4851
 2505WAT     H2 7727   3.702   0.795   0.680 -1.8305  1.4082 -0.2279
 2506WAT      O 7728   3.917   4.895   3.437  0.6063  0.3696  0.3765
 2506WAT     H1 7729   3.926   4.897   3.532 -1.0900  2.2117  0.5705
 2506WAT     H2 7730   3.984   4.955   3.405  2.3673 -1.5750  0.2046
 2507WAT      O 7731   2.052   5.198   5.450  0.2198 -0.3158  0.5231
 2507WAT     H1 7732   2.031   5.275   5.503  1.4460  0.1686  0.3561
 2507WAT     H2 7733   2.082   5.234   5.367  1.2995 -0.9287  0.6202
 2508WAT      O 7734   2.438   1.261   3.726 -0.1484 -0.2971  0.4845
 2508WAT     H1 7735   2.505   1.305   3.674  0.3452 -1.2510  0.2717
 2508WAT     H2 7736   2.467   1.272   3.816  0.6949 -1.2714  0.3607
 2509WAT      O 7737   3.875   4.568   0.969  0.0110 -0.0547 -0.3287
 2509WAT     H1 7738   3.896   4.645   0.917 -0.2164  0.3733  0.2065
 2509WAT     H2 7739   3.847   4.503   0.905  1.4982 -0.1490 -0.9096
 2510WAT      O 7740   2.333   0.640   3.960 -0.5137 -0.2261 -0.3391
 2510WAT     H1 7741   2.397   0.683   3.903  0.7540 -0.9746  0.4752
 2510WAT     H2 7742   2.371   0.645   4.047 -1.7397 -0.4007  0.2361
 2511WAT      O 7743   3.932   1.119   0.913  0.0169  0.2167  0.2023
 2511WAT     H1 7744   3.968   1.207   0.901 -1.0125  0.5288 -0.7944
 2511WAT     H2 7745   3.889   1.099   0.829 -0.4018 -0.9288  0.6727
 2512WAT      O 7746   3.119   1.082   1.537  0.3812 -0.2586  0.0268
 2512WAT     H1 7747   3.096   1.161   1.488 -0.4323 -0.1603  0.5501
 2512WAT     H2 7748   3.149   1.021   1.470 -1.8421 -0.5480 -0.8008
 2513WAT      O 7749   3.729   4.192   0.964 -0.0567  0.1269 -0.0578
 2513WAT     H1 7750   3.642   4.151   0.964 -0.0390  0.0798  0.3300
 2513WAT     H2 7751   3.723   4.264   0.901  0.2632 -1.2010 -1.6778
 2514WAT      O 7752   4.513   2.560   3.547 -0.6696 -0.1141 -0.4622
 2514WAT     H1 7753   4.431   2.519   3.521 -0.9688 -0.6595  1.2292
 2514WAT     H2 7754   4.498   2.591   3.636  0.9513 -0.2306 -0.1056
 2515WAT      O 7755   2.765   1.063   3.767  0.2622  0.0234  0.4996
 2515WAT     H1 7756   2.763   1.156   3.790  2.4407 -0.2058  1.8728
 2515WAT     H2 7757   2.721   1.058   3.682 -1.1940  2.0645  1.0664
 2516WAT      O 7758   1.993   4.896   3.387  0.4565 -0.4332 -0.7303
 2516WAT     H1 7759   1.982   4.911   3.293 -0.9957 -0.0124 -0.5231
 2516WAT     H2 7760   1.929   4.828   3.408 -1.6703  1.7643  0.5009
 2517WAT      O 7761   3.347   2.075   3.555 -0.2683  0.1915 -0.4497
 2517WAT     H1 7762   3.435   2.113   3.543 -0.1697 -0.2463 -1.1755
 2517WAT     H2 7763   3.288   2.150   3.551  0.0210  0.4139 -0.6139
 2518WAT      O 7764   0.474   1.750   4.985  0.2017 -0.1134 -0.5966
 2518WAT     H1 7765   0.435   1.698   5.056 -1.8918  0.7937 -0.9946
 2518WAT     H2 7766   0.531   1.812   5.029  0.3156 -0.7187  0.1343
 2519WAT      O 7767   3.142   4.377   1.451 -0.0248  0.4348  0.9676
 2519WAT     H1 7768   3.056   4.418   1.458 -0.8420 -1.1207  0.4660
 2519WAT     H2 7769   3.152   4.358   1.358  0.3161 -0.4842  1.1793
 2520WAT      O 7770   2.660   1.925   3.281 -0.6244 -0.3915  0.6884
 2520WAT     H1 7771   2.718   1.862   3.239  1.4861  1.4627  0.6573
 2520WAT     H2 7772   2.573   1.885   3.275  0.1159 -1.8233 -2.1929
 2521WAT      O 7773   4.625   2.263   3.875 -0.5239  0.1278 -0.3205
 2521WAT     H1 7774   4.636   2.354   3.903 -0.8569  0.3094 -0.7661
 2521WAT     H2 7775   4.651   2.211   3.951  1.3069  0.5488 -0.6030
 2522WAT      O 7776   3.640   1.301   0.110  0.8582 -0.2589  0.3836
 2522WAT     H1 7777   3.598   1.386   0.098  1.6666 -0.0811 -1.4986
 2522WAT     H2 7778   3.616   1.251   0.032 -2.2780 -3.0215  2.8534
 2523WAT      O 7779   0.575   1.730   1.101 -0.1172 -0.2115 -0.0564
 2523WAT     H1 7780   0.591   1.783   1.180  4.1930  0.0896 -0.8844
 2523WAT     H2 7781   0.563   1.641   1.134 -1.6414  0.3644  1.0439
 2524WAT      O 7782   2.704   0.568   3.056  0.1345 -0.3397  0.0130
 2524WAT     H1 7783   2.713   0.558   3.151 -0.3034 -0.8031  0.0124
 2524WAT     H2 7784   2.668   0.656   3.044  1.4267  0.2309  0.1929
 2525WAT      O 7785   2.552   2.087   2.210 -0.1083  0.0381  0.1644
 2525WAT     H1 7786   2.499   2.026   2.260  1.4381 -0.4866  1.2569
 2525WAT     H2 7787   2.494   2.119   2.141 -1.4913 -1.2867  0.6619
 2526WAT      O 7788   2.340   1.380   1.027  0.2165  0.2682 -0.3363
 2526WAT     H1 7789   2.410   1.439   0.999  2.1441 -0.5489  2.3851
 2526WAT     H2 7790   2.268   1.399   0.967  1.2468  4.2428 -0.5874
 2527WAT      O 7791   2.791   2.185   2.294  0.0477  0.7260 -0.1711
 2527WAT     H1 7792   2.722   2.131   2.255 -0.0164  0.2058  0.6371
 2527WAT     H2 7793   2.784   2.269   2.248 -0.7408  0.4912 -0.5090
 2528WAT      O 7794   3.890   5.049   2.329 -0.3000  0.6576 -0.2209
 2528WAT     H1 7795   3.915   5.053   2.236 -3.0073  0.4271 -1.0557
 2528WAT     H2 7796   3.794   5.047   2.327 -0.4099 -2.1077  2.4887
 2529WAT      O 7797   2.579   1.058   0.610  0.2390  0.1257 -0.4429
 2529WAT     H1 7798   2.657   1.114   0.613 -0.1874  0.6864  0.5887
 2529WAT     H2 7799   2.534   1.075   0.693 -1.2567  0.2103 -1.2385
 2530WAT      O 7800   3.158   5.462   3.336 -0.6978 -0.5320  0.3889
 2530WAT     H1 7801   3.120   5.546   3.312 -1.2884 -0.2508  2.1771
 2530WAT     H2 7802   3.249   5.482   3.359 -0.6313 -0.5232  0.1302
 2531WAT      O 7803   1.878   0.736   0.232 -0.0345 -0.3612  0.1600
 2531WAT     H1 7804   1.909   0.702   0.316  0.0702 -1.4010 -0.2895
 2531WAT     H2 7805   1.823   0.811   0.255  2.6765  1.5220  0.9983
 2532WAT      O 7806   2.865   0.721   5.725  0.2825  0.1198  0.0736
 2532WAT     H1 7807   2.811   0.659   5.676 -0.3018  0.5164  0.2108
 2532WAT     H2 7808   2.909   0.772   5.657  0.1654  0.0727 -0.0388
 2533WAT      O 7809   3.016   3.456   0.207  0.1134 -0.7068  0.6774
 2533WAT     H1 7810   2.959   3.530   0.225  1.1071  0.2522  0.0136
 2533WAT     H2 7811   3.103   3.495   0.196  0.7838 -2.0497  1.0252
 2534WAT      O 7812   3.628   3.999   3.607  0.0148  0.1639 -0.2784
 2534WAT     H1 7813   3.535   3.979   3.614  0.0248  0.6354  1.8154
 2534WAT     H2 7814   3.631   4.091   3.583 -0.0028 -0.4110 -2.7926
 2535WAT      O 7815   2.409   0.519   5.794  0.2584  0.0003 -0.1899
 2535WAT     H1 7816   2.503   0.503   5.796  0.5256  1.3465  2.5432
 2535WAT     H2 7817   2.400   0.615   5.800 -1.1843 -0.1911  2.6891
 2536WAT      O 7818   1.433   4.264   0.844  0.0214 -0.5236  0.4157
 2536WAT     H1 7819   1.497   4.276   0.774  0.7751 -1.1901  0.9651
 2536WAT     H2 7820   1.355   4.230   0.800 -0.3967  1.3755 -0.4246
 2537WAT      O 7821   2.849   0.751   2.371 -0.5818  0.5795  0.0742
 2537WAT     H1 7822   2.828   0.704   2.291 -2.1104  1.7422 -0.2511
 2537WAT     H2 7823   2.907   0.822   2.342 -1.6158  1.3594 -0.1197
 2538WAT      O 7824   3.953   4.776   4.115 -0.3485  0.4930  0.3861
 2538WAT     H1 7825   3.982   4.849   4.061 -2.1039  0.6640 -0.4110
 2538WAT     H2 7826   3.920   4.816   4.195 -3.0022  0.8698 -0.7678
 2539WAT      O 7827   1.798   3.262   3.394 -0.7822  0.4755  0.0024
 2539WAT     H1 7828   1.820   3.177   3.433  3.5314  0.5351 -1.7245
 2539WAT     H2 7829   1.784   3.243   3.302 -2.0816  1.4133 -0.0184
 2540WAT      O 7830   0.946   2.750   0.648 -0.1658  0.3098  0.0308
 2540WAT     H1 7831   1.000   2.772   0.572 -0.1979 -1.0565 -0.4252
 2540WAT     H2 7832   0.989   2.672   0.685 -1.0683 -0.0002  0.4484
 2541WAT      O 7833   2.966   1.496   3.191 -0.4394 -0.5743 -0.4039
 2541WAT     H1 7834   3.003   1.408   3.201 -0.6238 -0.6391 -0.2899
 2541WAT     H2 7835   2.873   1.481   3.173 -0.4266 -0.4085 -0.6105
 2542WAT      O 7836   2.513   2.616   3.907 -0.2556  0.0509 -0.3294
 2542WAT     H1 7837   2.541   2.539   3.857 -2.6716 -0.6718 -0.6947
 2542WAT     H2 7838   2.580   2.625   3.975  1.1781 -1.1262 -1.4913
 2543WAT      O 7839   2.193   2.858   1.627 -0.0314  0.3904 -0.3905
 2543WAT     H1 7840   2.141   2.835   1.550  0.2860  0.2011 -0.5513
 2543WAT     H2 7841   2.137   2.835   1.702 -0.0259 -0.1812 -0.5595
 2544WAT      O 7842   2.813   4.645   4.147  0.0497  0.2763 -0.7121
 2544WAT     H1 7843   2.885   4.672   4.204 -0.6166  0.0007  0.2815
 2544WAT     H2 7844   2.759   4.723   4.138 -1.0296 -0.2492  0.8707
 2545WAT      O 7845   2.535   0.686   5.121 -0.5192  0.8560  0.5474
 2545WAT     H1 7846   2.627   0.704   5.140  0.1305 -2.1381  0.8300
 2545WAT     H2 7847   2.498   0.658   5.205 -0.8981 -0.6142 -0.0701
 2546WAT      O 7848   2.964   0.031   3.236  0.3237 -0.2132  0.0221
 2546WAT     H1 7849   3.044   0.060   3.279  0.5290  0.2520 -0.6547
 2546WAT     H2 7850   2.973   0.061   3.146 -0.3888 -0.5974 -0.1866
 2547WAT      O 7851   2.376   3.681   3.709 -0.6812 -0.2249 -0.3238
 2547WAT     H1 7852   2.422   3.703   3.628  0.7716 -1.3747  0.1460
 2547WAT     H2 7853   2.441   3.692   3.778 -0.6061 -3.2500  0.2146
 2548WAT      O 7854   3.878   3.402   3.391 -0.0166  1.0578  0.4864
 2548WAT     H1 7855   3.914   3.490   3.387 -1.3982  1.6043 -0.6121
 2548WAT     H2 7856   3.893   3.374   3.481 -0.6757  2.9174  1.2156
 2549WAT      O 7857   0.426   3.273   4.927 -0.4103  0.8623 -0.2014
 2549WAT     H1 7858   0.414   3.364   4.953 -1.7078  0.7605 -0.3745
 2549WAT     H2 7859   0.430   3.225   5.010  0.0262  1.0381 -0.1158
 2550WAT      O 7860   0.239   2.295   3.521 -0.0124 -0.1580  0.3799
 2550WAT     H1 7861   0.151   2.283   3.485 -0.9908  0.7025  2.3442
 2550WAT     H2 7862   0.260   2.387   3.501  0.4917 -0.3743 -0.1250
 2551WAT      O 7863   2.643   0.709   1.860 -0.0572 -0.0580 -0.2116
 2551WAT     H1 7864   2.552   0.680   1.856 -0.6782  1.9111 -2.4923
 2551WAT     H2 7865   2.650   0.753   1.945 -0.9640 -0.9615  0.3556
 2552WAT      O 7866   2.680   2.553   1.141 -0.1706  0.5649  0.5076
 2552WAT     H1 7867   2.614   2.585   1.080  2.1392 -0.8712 -3.0665
 2552WAT     H2 7868   2.728   2.632   1.168 -1.0354  1.2054  0.2025
 2553WAT      O 7869   2.267   4.570   5.322  0.2010 -0.4199 -0.4766
 2553WAT     H1 7870   2.182   4.573   5.279 -0.7730  0.2946  1.4135
 2553WAT     H2 7871   2.279   4.478   5.345 -0.7428 -0.3114  0.5043
 2554WAT      O 7872   1.850   2.019   0.816 -0.1727 -0.0267 -0.1033
 2554WAT     H1 7873   1.761   2.023   0.782 -0.5277  0.2573  0.8159
 2554WAT     H2 7874   1.880   1.930   0.797 -0.8625 -0.3010  0.0647
 2555WAT      O 7875   2.372   0.619   4.491  0.1976  0.3781  0.0254
 2555WAT     H1 7876   2.405   0.687   4.432  1.8591  0.6823  1.2499
 2555WAT     H2 7877   2.357   0.663   4.574 -0.7586 -0.3412  0.2668
 2556WAT      O 7878   1.277   4.844   3.796 -0.0815  0.1946  0.4120
 2556WAT     H1 7879   1.233   4.831   3.712 -1.0748  1.0326  0.7787
 2556WAT     H2 7880   1.309   4.758   3.820  1.4922  0.1821 -1.5112
 2557WAT      O 7881   3.771   1.012   5.441 -0.0677  0.5565  0.1308
 2557WAT     H1 7882   3.820   1.055   5.371  0.0130 -0.0092 -0.1644
 2557WAT     H2 7883   3.698   0.970   5.396  0.4133 -0.4637  0.2764
 2558WAT      O 7884   3.831   1.577   4.463 -0.1776  0.3116  0.3759
 2558WAT     H1 7885   3.820   1.514   4.535  1.3983 -0.8505 -0.3242
 2558WAT     H2 7886   3.854   1.523   4.388 -0.4622  1.6191 -0.6826
 2559WAT      O 7887   3.588   0.731   2.676  0.2451 -0.4234 -0.1294
 2559WAT     H1 7888   3.513   0.790   2.667 -0.2736 -1.0079  0.2851
 2559WAT     H2 7889   3.663   0.789   2.685 -0.0259  0.1801 -1.4732
 2560WAT      O 7890   3.085   3.931   2.025 -0.4050 -0.2838  0.5609
 2560WAT     H1 7891   3.030   3.854   2.041 -0.1215 -0.1315  2.5168
 2560WAT     H2 7892   3.045   3.973   1.949 -0.3894 -2.4917 -0.7438
 2561WAT      O 7893   1.006   1.890   0.925 -0.0361  0.0684  0.2275
 2561WAT     H1 7894   1.068   1.861   0.992  0.1896  1.1628  0.5065
 2561WAT     H2 7895   0.940   1.820   0.921  0.8604 -0.8051  0.3798
 2562WAT      O 7896   3.689   2.495   0.934 -0.4316  0.6123 -0.4098
 2562WAT     H1 7897   3.619   2.553   0.963 -0.0483  1.5794 -1.3549
 2562WAT     H2 7898   3.760   2.510   0.997 -0.5272  0.7685 -0.3381
 2563WAT      O 7899   0.255   2.308   0.764 -0.3237 -0.4955 -0.4542
 2563WAT     H1 7900   0.279   2.353   0.684  1.7192 -1.4483 -0.4682
 2563WAT     H2 7901   0.231   2.377   0.825 -1.4189  0.2666 -1.7082
 2564WAT      O 7902   3.188   0.364   2.445 -0.1619 -0.3057 -0.2162
 2564WAT     H1 7903   3.163   0.278   2.411 -1.2745  0.1512 -0.6099
 2564WAT     H2 7904   3.266   0.348   2.497  2.0121 -0.9702 -3.4207
 2565WAT      O 7905   3.951   0.392   2.237 -0.3235 -0.0259  0.0318
 2565WAT     H1 7906   3.885   0.461   2.229 -0.0957  0.0005 -1.9536
 2565WAT     H2 7907   4.028   0.426   2.191  0.3138 -0.9782  0.3521
 2566WAT      O 7908   3.243   5.442   4.017  0.1175  0.3345 -0.3888
 2566WAT     H1 7909   3.193   5.482   3.946 -0.3843 -0.4185 -0.4746
 2566WAT     H2 7910   3.183   5.378   4.055  0.3506  0.7930  0.7887
 2567WAT      O 7911   3.626   5.131   2.289  0.4029  0.3735 -0.2651
 2567WAT     H1 7912   3.560   5.160   2.352  0.5469 -0.5222  0.3109
 2567WAT     H2 7913   3.575   5.099   2.215  0.2005  0.1775 -0.0427
 2568WAT      O 7914   3.048   2.367   2.285 -0.4574 -0.6389  0.0382
 2568WAT     H1 7915   3.017   2.455   2.302 -0.0760 -0.2393 -1.2082
 2568WAT     H2 7916   2.978   2.310   2.317 -1.1485  0.1402 -0.0568
 2569WAT      O 7917   1.697   1.840   1.905 -0.2503  0.1552  0.8387
 2569WAT     H1 7918   1.623   1.877   1.856  0.6409 -2.0661 -2.5568
 2569WAT     H2 7919   1.665   1.756   1.938  0.7437 -1.0959 -1.1433
 2570WAT      O 7920   4.806   1.294   1.381  0.3708  0.2619  0.2461
 2570WAT     H1 7921   4.831   1.225   1.319  0.6460  1.5807 -1.1782
 2570WAT     H2 7922   4.889   1.325   1.417  0.2883  0.2370  0.4597
 2571WAT      O 7923   1.381   3.900   2.109 -0.6560 -0.1487 -0.0211
 2571WAT     H1 7924   1.380   3.955   2.187 -2.3123  0.1648 -0.2302
 2571WAT     H2 7925   1.467   3.916   2.070 -0.4486  0.9789  0.8407
 2572WAT      O 7926   3.445   1.669   1.209 -0.1471 -0.1243  0.0629
 2572WAT     H1 7927   3.495   1.591   1.183  1.4709  0.6129  0.8454
 2572WAT     H2 7928   3.419   1.652   1.299  0.9318  0.5794  0.5153
 2573WAT      O 7929   2.638   5.482   0.641  0.6024 -0.5250 -0.2881
 2573WAT     H1 7930   2.579   5.547   0.603  0.2639 -0.3886  0.4532
 2573WAT     H2 7931   2.612   5.477   0.733  2.1678  0.0042  0.2110
 2574WAT      O 7932   2.718   0.209   5.646  0.3121  0.6412  0.0589
 2574WAT     H1 7933   2.756   0.124   5.622  1.2591  1.5103 -1.7016
 2574WAT     H2 7934   2.793   0.265   5.664 -0.2612  1.4079  0.1361
 2575WAT      O 7935   4.469   1.256   0.840 -0.0580  0.1075 -0.5859
 2575WAT     H1 7936   4.462   1.196   0.766 -0.9483 -0.0686 -0.3701
 2575WAT     H2 7937   4.462   1.343   0.801 -1.4903 -0.0040 -0.6302
 2576WAT      O 7938   1.194   1.390   1.303  0.0049  0.4019  0.6945
 2576WAT     H1 7939   1.242   1.457   1.352 -0.0844 -1.3428  3.3857
 2576WAT     H2 7940   1.262   1.342   1.255  0.1974  1.6274 -0.3024
 2577WAT      O 7941   3.778   4.288   2.210  0.4903  0.1518  0.2092
 2577WAT     H1 7942   3.746   4.378   2.202 -1.0628 -0.3241  0.7803
 2577WAT     H2 7943   3.708   4.241   2.256  2.3059 -0.7942  2.1817
 2578WAT      O 7944   4.783   3.025   0.469  0.2741  0.2211 -0.4031
 2578WAT     H1 7945   4.722   2.953   0.488  0.9961 -0.4917 -0.6944
 2578WAT     H2 7946   4.738   3.077   0.403 -0.9682  1.0095  0.9955
 2579WAT      O 7947   2.345   1.232   5.617  0.2905  0.3378 -0.7540
 2579WAT     H1 7948   2.275   1.178   5.580 -0.1050  0.2015  0.1708
 2579WAT     H2 7949   2.314   1.255   5.704  1.3034  0.4674 -0.4150
 2580WAT      O 7950   0.097   2.244   1.592 -0.1587 -0.0571  0.0340
 2580WAT     H1 7951   0.181   2.204   1.570 -0.1967  0.2441 -0.6850
 2580WAT     H2 7952   0.033   2.174   1.578 -0.1361  0.0113 -0.4329
 2581WAT      O 7953   0.468   1.248   0.973  0.1570  0.0420 -0.1143
 2581WAT     H1 7954   0.391   1.193   0.959  0.0739  0.2172 -0.3513
 2581WAT     H2 7955   0.488   1.284   0.887  0.2160  0.3782  0.0395
 2582WAT      O 7956   1.908   1.762   2.975 -0.0746 -0.3487  0.1913
 2582WAT     H1 7957   1.860   1.840   3.005  0.2127  1.5240 -3.5865
 2582WAT     H2 7958   1.844   1.713   2.924  0.3314 -1.4748  0.7421
 2583WAT      O 7959   2.471   2.123   1.612 -0.1471 -0.4952  0.4034
 2583WAT     H1 7960   2.385   2.163   1.624 -0.6754 -0.9205 -1.5685
 2583WAT     H2 7961   2.452   2.034   1.581  1.0132 -0.7331  0.3274
 2584WAT      O 7962   2.379   3.071   2.529 -0.2289 -0.3537 -0.0660
 2584WAT     H1 7963   2.374   3.164   2.506 -1.2123 -0.2184  0.6192
 2584WAT     H2 7964   2.294   3.052   2.570  0.2505 -1.3610  0.4978
 2585WAT      O 7965   3.998   0.750   3.263  0.1160  0.3191  0.6663
 2585WAT     H1 7966   4.051   0.820   3.225 -0.0824  1.8338  2.9369
 2585WAT     H2 7967   4.019   0.752   3.356 -0.4689 -2.2089  0.9405
 2586WAT      O 7968   2.788   4.194   4.152  0.0459  0.3322 -0.0816
 2586WAT     H1 7969   2.861   4.219   4.209 -1.9636  2.2056  1.9240
 2586WAT     H2 7970   2.774   4.271   4.096 -1.8181  1.0612  1.2677
 2587WAT      O 7971   3.367   5.341   0.193  0.2886 -0.3672  0.8562
 2587WAT     H1 7972   3.278   5.374   0.179  0.0856 -1.7124 -1.4938
 2587WAT     H2 7973   3.360   5.289   0.273 -0.4357  1.4156  2.0210
 2588WAT      O 7974   1.480   1.912   1.686 -0.3614  0.1818 -0.1379
 2588WAT     H1 7975   1.401   1.897   1.634  0.2153 -0.4238 -0.8621
 2588WAT     H2 7976   1.545   1.942   1.623 -0.0643  0.8978  0.4908
 2589WAT      O 7977   2.020   4.782   3.836  0.5338  0.5914 -0.3857
 2589WAT     H1 7978   1.999   4.824   3.920  0.0737 -0.4315  0.0300
 2589WAT     H2 7979   2.014   4.852   3.772  0.3496  1.2766  0.3653
 2590WAT      O 7980   2.647   5.651   0.298 -0.3327 -0.3243  0.1131
 2590WAT     H1 7981   2.667   5.714   0.368  1.4151 -0.4336 -0.2423
 2590WAT     H2 7982   2.707   5.578   0.314 -0.0559 -0.4488 -1.3518
 2591WAT      O 7983   4.458   3.414   0.064  0.1251  0.1054  0.0327
 2591WAT     H1 7984   4.430   3.374   0.146 -1.1535  1.3375  0.2319
 2591WAT     H2 7985   4.529   3.474   0.089  2.0304 -1.8756 -0.2637
 2592WAT      O 7986   1.914   5.530   3.169  0.0439  0.0208  0.3492
 2592WAT     H1 7987   2.008   5.518   3.182  0.2964  0.6835 -0.7192
 2592WAT     H2 7988   1.897   5.493   3.082 -0.3862  1.2248 -0.1018
 2593WAT      O 7989   2.585   0.137   3.189  0.3909  0.3971  0.1923
 2593WAT     H1 7990   2.664   0.083   3.199 -0.0373 -0.2228  0.3410
 2593WAT     H2 7991   2.611   0.206   3.128  0.9710  0.0480  0.0267
 2594WAT      O 7992   3.419   0.653   4.622  0.7108 -0.1234  0.0629
 2594WAT     H1 7993   3.356   0.620   4.557  2.1682  0.3233 -1.6544
 2594WAT     H2 7994   3.411   0.593   4.695 -1.1533 -0.5401 -0.4084
 2595WAT      O 7995   4.240   0.654   1.006  0.4064  0.5114 -0.5071
 2595WAT     H1 7996   4.203   0.586   0.950 -0.4258  0.7399 -0.2420
 2595WAT     H2 7997   4.184   0.655   1.084  1.2806  0.5049  0.1442
 2596WAT      O 7998   4.226   0.813   2.790  0.0538 -0.0568 -0.1401
 2596WAT     H1 7999   4.304   0.756   2.790  0.6990  0.8030 -0.1547
 2596WAT     H2 8000   4.251   0.887   2.846 -1.0490 -0.1460  0.5069
 2597WAT      O 8001   2.515   2.635   2.371  0.3284 -0.7694  0.4681
 2597WAT     H1 8002   2.470   2.565   2.324 -1.1782 -0.7182  1.7603
 2597WAT     H2 8003   2.448   2.701   2.386  1.2347  0.0490  1.0299
 2598WAT      O 8004   1.833   1.965   1.572 -0.2122  0.2030 -0.2372
 2598WAT     H1 8005   1.898   1.906   1.612 -2.4137 -1.7654  0.6702
 2598WAT     H2 8006   1.832   2.042   1.630 -1.1976 -1.3189  1.9324
 2599WAT      O 8007   1.840   4.859   2.319 -0.2592  0.4123  0.0548
 2599WAT     H1 8008   1.761   4.856   2.373 -0.7241 -0.4032 -0.6285
 2599WAT     H2 8009   1.853   4.768   2.291  1.2180  0.4364  0.5531
 2600WAT      O 8010   1.534   0.777   3.581 -0.1153  0.1594  0.3168
 2600WAT     H1 8011   1.496   0.748   3.498  1.3757 -0.9802 -0.0058
 2600WAT     H2 8012   1.587   0.703   3.611  0.3816  1.0153  1.6611
 2601WAT      O 8013   1.852   3.016   2.565  0.1262  0.2668  0.3893
 2601WAT     H1 8014   1.772   3.012   2.512 -0.4276  1.2195  1.1061
 2601WAT     H2 8015   1.827   2.977   2.648  1.1184 -1.6375 -0.1556
 2602WAT      O 8016   2.045   0.091   4.683  0.0963 -0.0869 -0.3246
 2602WAT     H1 8017   2.000   0.012   4.656  0.9834 -0.3917 -0.9622
 2602WAT     H2 8018   2.138   0.072   4.670  0.2854  1.4029 -1.4574
 2603WAT      O 8019   4.767   3.488   3.606  0.1723 -0.2796 -0.1296
 2603WAT     H1 8020   4.795   3.419   3.546  1.8767 -0.1595  0.4597
 2603WAT     H2 8021   4.734   3.441   3.683  0.9268 -0.4474  0.0976
 2604WAT      O 8022   2.486   0.583   3.479 -0.2286 -0.1026 -0.0084
 2604WAT     H1 8023   2.433   0.570   3.558 -0.8183  0.5233 -0.2882
 2604WAT     H2 8024   2.429   0.633   3.420  0.4441  0.0143 -0.5736
 2605WAT      O 8025   0.373   2.342   1.296  0.0610 -0.1536  0.5496
 2605WAT     H1 8026   0.464   2.364   1.276 -0.3049  1.2102  0.2824
 2605WAT     H2 8027   0.367   2.353   1.391  0.7591 -2.6523  0.9617
 2606WAT      O 8028   1.285   3.810   2.751  0.1057 -0.2352  0.1798
 2606WAT     H1 8029   1.239   3.747   2.807  0.8247 -0.5553  0.4163
 2606WAT     H2 8030   1.215   3.864   2.714 -0.3858  0.1359  1.5751
 2607WAT      O 8031   2.027   2.092   2.855 -0.0206 -0.2285  0.7835
 2607WAT     H1 8032   2.058   2.179   2.880  0.6840 -0.8775  2.3080
 2607WAT     H2 8033   2.106   2.039   2.849 -0.5858 -1.3963  2.6108
 2608WAT      O 8034   3.840   0.125   4.460  0.2713  0.4740  0.2050
 2608WAT     H1 8035   3.916   0.146   4.514  0.5716 -0.7018  0.2820
 2608WAT     H2 8036   3.852   0.175   4.379  1.0855  0.3702  0.2555
 2609WAT      O 8037   2.534   4.455   3.644 -0.6536 -0.1006  0.5249
 2609WAT     H1 8038   2.450   4.501   3.649 -0.5627  0.2161 -0.5777
 2609WAT     H2 8039   2.570   4.461   3.732 -1.3982  0.5070  0.7999
 2610WAT      O 8040   3.734   1.215   2.061 -0.1347  0.3202 -0.5030
 2610WAT     H1 8041   3.703   1.291   2.110  0.1667  1.3153 -1.8083
 2610WAT     H2 8042   3.815   1.245   2.019  0.5625 -1.0527 -0.2032
 2611WAT      O 8043   3.545   2.426   0.388  0.0836  0.1034  0.1211
 2611WAT     H1 8044   3.590   2.493   0.439 -0.8569 -0.0198  1.1657
 2611WAT     H2 8045   3.469   2.403   0.442 -1.0370  0.0616 -1.3991
 2612WAT      O 8046   2.142   5.304   4.471  0.2701  0.1301  0.3327
 2612WAT     H1 8047   2.060   5.256   4.461  1.2215 -1.3779 -0.6205
 2612WAT     H2 8048   2.115   5.392   4.497 -1.7075 -0.0272 -0.9700
 2613WAT      O 8049   1.742   1.058   1.729  0.2957  0.8406 -0.2104
 2613WAT     H1 8050   1.651   1.032   1.734 -0.1742  1.9314 -1.8873
 2613WAT     H2 8051   1.778   1.007   1.656  1.2992 -0.2636  1.0247
 2614WAT      O 8052   2.632   1.832   2.494  0.2525  0.6108 -0.6938
 2614WAT     H1 8053   2.569   1.883   2.444 -0.6521  0.8211  0.6106
 2614WAT     H2 8054   2.578   1.775   2.549  1.1913 -1.9833 -2.2360
 2615WAT      O 8055   1.578   2.758   0.334  0.0756  0.2073  0.4513
 2615WAT     H1 8056   1.569   2.839   0.283  0.4304  0.0996  0.2098
 2615WAT     H2 8057   1.488   2.730   0.352 -0.0494  0.7765  0.7341
 2616WAT      O 8058   1.175   2.115   2.115 -0.1975 -0.0240 -0.5208
 2616WAT     H1 8059   1.102   2.054   2.119  0.1781 -0.7664 -3.0090
 2616WAT     H2 8060   1.229   2.083   2.043  1.9513  1.1993  0.4513
 2617WAT      O 8061   2.840   0.357   1.279 -0.4692  0.2393 -0.1817
 2617WAT     H1 8062   2.935   0.363   1.292 -0.6393  2.1514  0.5425
 2617WAT     H2 8063   2.822   0.416   1.207 -0.9643 -1.4187 -1.4879
 2618WAT      O 8064   3.522   0.889   5.323 -0.3351  0.0493  0.1094
 2618WAT     H1 8065   3.469   0.911   5.399 -1.2888  1.0220 -0.8015
 2618WAT     H2 8066   3.574   0.814   5.350 -1.1333 -0.0225  1.4935
 2619WAT      O 8067   0.021   1.095   1.278 -0.3234  0.0188  0.2878
 2619WAT     H1 8068   0.027   1.022   1.216 -1.4699  0.4286 -0.3365
 2619WAT     H2 8069   0.006   1.054   1.363  1.3341 -0.5538  0.3316
 2620WAT      O 8070   4.721   1.319   0.670 -0.1502  0.3910  0.1642
 2620WAT     H1 8071   4.657   1.375   0.716 -0.7908  0.3664 -0.6756
 2620WAT     H2 8072   4.705   1.231   0.705 -1.7863  0.0690 -1.2569
 2621WAT      O 8073   3.423   2.030   0.927  0.4798 -0.7340  0.4069
 2621WAT     H1 8074   3.485   2.100   0.951 -1.2552  1.0044  0.0181
 2621WAT     H2 8075   3.382   2.006   1.010  0.9809 -1.2369  0.5191
 2622WAT      O 8076   3.531   0.329   0.921  0.3558 -0.5624 -0.6209
 2622WAT     H1 8077   3.578   0.376   0.852  0.8451  0.0177  0.0949
 2622WAT     H2 8078   3.498   0.398   0.978 -1.7576 -0.9179 -1.3251
 2623WAT      O 8079   4.407   3.625   2.538  0.1863  0.6840  0.1070
 2623WAT     H1 8080   4.499   3.600   2.552 -0.4820 -1.3039  1.2280
 2623WAT     H2 8081   4.413   3.706   2.486  2.5698  1.0276  0.7733
 2624WAT      O 8082   1.635   1.324   1.272  0.8104 -0.0196 -0.3631
 2624WAT     H1 8083   1.701   1.387   1.242 -1.1717  1.2279 -2.4289
 2624WAT     H2 8084   1.593   1.367   1.346  2.7367 -1.1833  1.5331
 2625WAT      O 8085   3.466   2.270   1.075  0.2724 -0.2118 -0.0968
 2625WAT     H1 8086   3.543   2.308   1.116 -0.1607 -0.2391  0.7739
 2625WAT     H2 8087   3.393   2.301   1.129 -0.3952  0.3347 -1.2682
 2626WAT      O 8088   0.896   3.879   5.799 -0.8916 -0.1419 -0.4076
 2626WAT     H1 8089   0.880   3.914   5.887  0.9297 -1.9955  0.7459
 2626WAT     H2 8090   0.925   3.955   5.748 -2.5180  1.0792  0.3811
 2627WAT      O 8091   3.649   2.770   3.618  0.1265 -0.3756  0.0977
 2627WAT     H1 8092   3.645   2.709   3.545 -0.3050  0.1790 -0.3447
 2627WAT     H2 8093   3.559   2.799   3.631  0.0939 -0.9006  1.2329
 2628WAT      O 8094   2.176   1.185   3.692  0.5782 -0.4132  0.0307
 2628WAT     H1 8095   2.119   1.229   3.754 -0.1276  2.8834 -2.6747
 2628WAT     H2 8096   2.262   1.226   3.703  1.7554 -3.0554  1.8126
 2629WAT      O 8097   4.235   1.478   0.595  0.0762 -0.1247  0.3064
 2629WAT     H1 8098   4.202   1.519   0.675  1.1172  0.3348  0.5131
 2629WAT     H2 8099   4.191   1.393   0.592 -0.3526  0.0596  1.0953
 2630WAT      O 8100   4.285   0.641   0.178 -0.1266  0.2825  0.3419
 2630WAT     H1 8101   4.340   0.714   0.207 -0.0884  0.1044  0.7290
 2630WAT     H2 8102   4.264   0.662   0.087  1.3620 -0.1059 -0.1302
 2631WAT      O 8103   1.872   5.312   0.492  0.0045  0.2677  0.6537
 2631WAT     H1 8104   1.867   5.323   0.398  1.2200 -1.0977  0.3862
 2631WAT     H2 8105   1.795   5.260   0.515 -1.4417  2.3434  0.7747
 2632WAT      O 8106   0.096   4.261   0.924 -0.3935  0.2046 -0.1612
 2632WAT     H1 8107   0.061   4.339   0.882  1.0578  0.8682 -0.2061
 2632WAT     H2 8108   0.019   4.207   0.944 -1.5158  2.0264  0.6530
 2633WAT      O 8109   2.338   3.873   0.076 -0.3656  0.0461 -0.2890
 2633WAT     H1 8110   2.327   3.968   0.085 -2.9012 -0.3055  1.5563
 2633WAT     H2 8111   2.295   3.853  -0.008  1.9908  0.6631 -1.7438
 2634WAT      O 8112   2.121   5.217   0.610  0.1496  0.0751  0.0390
 2634WAT     H1 8113   2.143   5.278   0.681  1.6719  0.3471 -0.6121
 2634WAT     H2 8114   2.042   5.253   0.571 -0.4026  0.2226  1.2481
 2635WAT      O 8115   2.294   2.270   2.439 -0.3487 -0.0097  0.1159
 2635WAT     H1 8116   2.262   2.299   2.525  1.6499  1.0298  0.5727
 2635WAT     H2 8117   2.347   2.193   2.458 -1.5153 -0.9963 -0.4793
 2636WAT      O 8118   0.524   3.488   2.625  0.1802  0.4475  0.5734
 2636WAT     H1 8119   0.442   3.484   2.576  0.9480 -0.0233 -0.7069
 2636WAT     H2 8120   0.536   3.399   2.659  1.2479 -0.0943 -1.1156
 2637WAT      O 8121   3.449   0.657   0.826 -0.0254  0.0367  0.6316
 2637WAT     H1 8122   3.536   0.672   0.789  0.0680  0.6438  1.0725
 2637WAT     H2 8123   3.466   0.612   0.909 -0.0878  0.6848  1.0016
 2638WAT      O 8124   2.410   0.896   0.142  0.4263  0.0228  0.0907
 2638WAT     H1 8125   2.356   0.845   0.202  0.5382 -1.3108 -0.8993
 2638WAT     H2 8126   2.385   0.866   0.055  1.3811  0.7722 -0.4644
 2639WAT      O 8127   1.782   4.082   4.179 -0.1290 -0.5079 -0.1956
 2639WAT     H1 8128   1.760   3.993   4.209  1.3290 -0.8841 -0.1802
 2639WAT     H2 8129   1.705   4.134   4.203 -0.9966 -1.7423 -0.1495
 2640WAT      O 8130   3.491   1.811   0.138  0.3152 -0.0581  0.0558
 2640WAT     H1 8131   3.423   1.857   0.090  0.3869 -0.0772 -0.0660
 2640WAT     H2 8132   3.474   1.831   0.230  1.6210  1.9887 -0.0825
 2641WAT      O 8133   3.646   0.931   0.512 -0.1207 -0.3260 -0.6264
 2641WAT     H1 8134   3.652   0.978   0.428  1.5493 -1.5351 -1.2478
 2641WAT     H2 8135   3.576   0.868   0.499  0.5225 -0.9166 -1.3684
 2642WAT      O 8136   3.109   0.904   0.579  0.0855  0.5863  0.0824
 2642WAT     H1 8137   3.047   0.958   0.628 -1.2755  1.0397 -1.9769
 2642WAT     H2 8138   3.168   0.968   0.538  0.0750  0.3557 -0.2962
 2643WAT      O 8139   1.497   4.443   0.515  0.3240  0.3566  0.2873
 2643WAT     H1 8140   1.468   4.519   0.566 -0.1375 -0.5561  1.4154
 2643WAT     H2 8141   1.555   4.480   0.448 -2.0403  2.0512 -0.9625
 2644WAT      O 8142   2.140   3.053   5.501  0.0180 -0.2228 -0.2066
 2644WAT     H1 8143   2.218   3.029   5.451  0.8795  0.5604  0.7313
 2644WAT     H2 8144   2.141   3.148   5.504 -0.3950 -0.2409  0.7336
 2645WAT      O 8145   1.570   1.332   1.790 -0.2380  0.0262  0.2904
 2645WAT     H1 8146   1.516   1.287   1.725  0.0376  0.4349 -0.2251
 2645WAT     H2 8147   1.543   1.423   1.785 -0.7285 -0.0532  1.2683
 2646WAT      O 8148   4.849   3.418   5.558 -0.1645  0.3064 -0.2010
 2646WAT     H1 8149   4.872   3.351   5.493  0.2701 -0.3624  0.6308
 2646WAT     H2 8150   4.925   3.476   5.561 -0.3734  0.6094 -0.6185
 2647WAT      O 8151   1.587   1.660   5.423 -0.1219 -0.1443  0.0356
 2647WAT     H1 8152   1.678   1.637   5.443 -0.3949 -2.1364 -0.8244
 2647WAT     H2 8153   1.568   1.733   5.483  1.3677 -1.0790  1.7665
 2648WAT      O 8154   2.353   5.030   1.217  0.1806 -0.3094  0.4496
 2648WAT     H1 8155   2.388   4.944   1.191 -0.2394 -0.8856  1.7096
 2648WAT     H2 8156   2.421   5.068   1.273 -0.7103 -0.9970  2.0714
 2649WAT      O 8157   2.407   2.988   1.513 -0.7353 -0.5408  0.2222
 2649WAT     H1 8158   2.350   2.926   1.558 -0.8488 -0.2057  0.5409
 2649WAT     H2 8159   2.410   3.065   1.570 -0.3612 -0.3643 -0.0290
 2650WAT      O 8160   3.200   4.126   0.533 -0.2788  0.0425  0.6251
 2650WAT     H1 8161   3.164   4.108   0.446 -1.4367 -1.0493  1.3023
 2650WAT     H2 8162   3.125   4.154   0.585  0.1492 -0.6480  1.6359
 2651WAT      O 8163   2.129   2.242   1.865 -0.6780  0.0158 -0.3732
 2651WAT     H1 8164   2.171   2.210   1.785  1.0378  0.8679  0.1267
 2651WAT     H2 8165   2.087   2.164   1.902  1.5702 -1.2760 -0.2884
 2652WAT      O 8166   3.005   0.300   5.796 -0.5122 -0.0434 -0.1952
 2652WAT     H1 8167   3.016   0.368   5.728 -0.4915 -0.5451 -0.7003
 2652WAT     H2 8168   3.029   0.344   5.878 -0.6954  0.6191 -0.4923
 2653WAT      O 8169   2.656   5.546   2.984 -0.0520  0.5176  0.2628
 2653WAT     H1 8170   2.573   5.582   2.953  0.2722  1.1771  0.1512
 2653WAT     H2 8171   2.723   5.602   2.945  0.3583  2.4187  3.3730
 2654WAT      O 8172   2.475   0.873   1.631 -0.6238 -0.3544 -0.1294
 2654WAT     H1 8173   2.524   0.814   1.574  0.7075  0.6972 -0.1248
 2654WAT     H2 8174   2.506   0.852   1.719  0.6010  0.9608 -0.2063
 2655WAT      O 8175   1.803   1.805   5.588  0.0213  0.6946  0.4661
 2655WAT     H1 8176   1.863   1.852   5.646  0.6704  2.9571 -1.8487
 2655WAT     H2 8177   1.854   1.791   5.508 -1.3945 -0.7113 -0.2417
 2656WAT      O 8178   3.503   1.123   0.948  0.4288  0.2737 -0.4938
 2656WAT     H1 8179   3.490   1.066   0.872 -3.1662  0.2266 -0.0369
 2656WAT     H2 8180   3.559   1.073   1.007  0.4073 -1.1820 -1.6534
 2657WAT      O 8181   3.446   5.493   3.245  0.5350  0.7402  0.4653
 2657WAT     H1 8182   3.429   5.561   3.179 -0.5878  1.2697  1.2559
 2657WAT     H2 8183   3.509   5.435   3.204 -2.8208 -1.1354 -2.6617
 2658WAT      O 8184   3.171   1.701   4.464  0.0849  0.1124  0.0709
 2658WAT     H1 8185   3.205   1.737   4.382 -0.0975  2.0196  0.8003
 2658WAT     H2 8186   3.081   1.676   4.443  0.6418 -1.2753 -0.8082
 2659WAT      O 8187   1.074   1.541   5.337  0.1430  0.0374  0.3347
 2659WAT     H1 8188   1.168   1.553   5.323  0.0257  1.3344  0.5389
 2659WAT     H2 8189   1.064   1.448   5.356  1.4643 -0.0115  0.8811
 2660WAT      O 8190   1.020   1.717   2.292  0.1281 -0.2631 -0.2468
 2660WAT     H1 8191   0.944   1.658   2.284  0.5372 -0.8255 -0.0356
 2660WAT     H2 8192   1.017   1.769   2.212  0.5221 -1.4920 -1.0930
 2661WAT      O 8193   0.248   3.704   0.896 -0.3513 -0.3495 -0.0707
 2661WAT     H1 8194   0.186   3.634   0.914 -1.5369  0.3354 -1.2512
 2661WAT     H2 8195   0.203   3.761   0.833  1.2733  0.4753 -0.5753
 2662WAT      O 8196   2.043   2.236   2.333 -0.0456 -0.7187  0.1032
 2662WAT     H1 8197   2.021   2.146   2.359 -0.1697 -1.1858 -1.5251
 2662WAT     H2 8198   2.134   2.247   2.362  1.1484 -2.5788 -2.4955
 2663WAT      O 8199   2.172   0.703   2.339  0.1352 -0.3607  0.4114
 2663WAT     H1 8200   2.151   0.635   2.403 -1.1567 -0.0765  0.3274
 2663WAT     H2 8201   2.086   0.734   2.308  0.7254 -0.1268 -1.0763
 2664WAT      O 8202   2.927   4.426   1.697  0.5014 -0.2478 -0.3864
 2664WAT     H1 8203   2.872   4.490   1.742  0.9316 -0.0570 -0.1249
 2664WAT     H2 8204   2.869   4.386   1.632 -0.8764 -2.3453  1.9725
 2665WAT      O 8205   1.536   3.478   2.914  0.0550 -0.0401 -0.1078
 2665WAT     H1 8206   1.462   3.474   2.854 -0.6233  0.1147  0.6884
 2665WAT     H2 8207   1.516   3.413   2.982  0.5385  0.1600  0.2354
 2666WAT      O 8208   2.310   5.598   4.074 -0.3081  0.0312 -0.4357
 2666WAT     H1 8209   2.216   5.620   4.072  0.1659  2.3859  0.1434
 2666WAT     H2 8210   2.322   5.551   4.157 -0.7737  0.8799  0.1273
 2667WAT      O 8211   1.928   3.641   2.920  0.1507  0.4557 -0.2959
 2667WAT     H1 8212   1.856   3.668   2.977 -0.2715  0.7245 -0.9443
 2667WAT     H2 8213   1.885   3.612   2.840  0.6983 -0.5520 -0.2461
 2668WAT      O 8214   3.156   0.173   2.218 -0.1649  0.1201 -0.5319
 2668WAT     H1 8215   3.155   0.129   2.133 -1.0172 -0.7237 -0.1056
 2668WAT     H2 8216   3.247   0.199   2.231  0.1932 -0.7788 -1.1768
 2669WAT      O 8217   2.493   3.074   0.890 -0.4604  0.0984  0.1745
 2669WAT     H1 8218   2.494   2.997   0.833 -0.8649  1.3878 -1.6746
 2669WAT     H2 8219   2.415   3.123   0.863 -0.0649  1.2926  1.1176
 2670WAT      O 8220   1.136   2.820   0.452 -0.0968 -0.2186 -0.1897
 2670WAT     H1 8221   1.170   2.886   0.391  0.6163 -0.3846  0.0194
 2670WAT     H2 8222   1.213   2.770   0.478 -0.1528  0.6935  1.9111
 2671WAT      O 8223   4.844   1.915   0.985 -0.3101 -0.1673  0.0701
 2671WAT     H1 8224   4.839   1.822   1.006 -2.5522 -0.7581 -2.4169
 2671WAT     H2 8225   4.756   1.937   0.953  0.9310  2.0285 -2.2566
 2672WAT      O 8226   3.390   3.739   2.092 -0.1058  0.4438  0.1568
 2672WAT     H1 8227   3.425   3.661   2.137  0.3695  1.4728  1.6273
 2672WAT     H2 8228   3.453   3.755   2.021  0.0961 -0.1791  0.1881
 2673WAT      O 8229   0.335   3.555   1.224 -0.0765 -0.0588 -0.2185
 2673WAT     H1 8230   0.401   3.570   1.156  0.2745  0.8224  0.3009
 2673WAT     H2 8231   0.375   3.490   1.282  0.8963  1.3856  0.7931
 2674WAT      O 8232   2.614   5.595   1.763 -0.1983  0.7972 -0.2797
 2674WAT     H1 8233   2.529   5.615   1.723  0.2236  0.5659 -1.3232
 2674WAT     H2 8234   2.620   5.500   1.761 -0.8523  0.6575  1.8429
 2675WAT      O 8235   3.973   2.419   2.917 -0.0290 -0.1635 -0.6483
 2675WAT     H1 8236   3.948   2.502   2.876  2.1389  0.0321 -1.7084
 2675WAT     H2 8237   4.053   2.393   2.871  2.5824 -0.0061  3.3404
 2676WAT      O 8238   2.593   3.989   2.357  0.2978 -0.4613 -0.3996
 2676WAT     H1 8239   2.566   3.950   2.441  1.1991 -2.2456 -0.8934
 2676WAT     H2 8240   2.518   3.975   2.299  0.1708 -0.4162 -0.2466
 2677WAT      O 8241   3.866   2.943   5.340  0.1598 -0.4137  0.2671
 2677WAT     H1 8242   3.941   2.951   5.398  1.6745 -0.8213 -1.5166
 2677WAT     H2 8243   3.790   2.956   5.396  1.5816  0.9517  1.9803
 2678WAT      O 8244   0.549   1.966   3.129 -0.1387 -0.2003  0.1115
 2678WAT     H1 8245   0.540   1.902   3.200  0.6470 -0.2339  0.1878
 2678WAT     H2 8246   0.532   1.917   3.049 -0.1846 -0.3531  0.2151
 2679WAT      O 8247   0.752   4.036   4.649 -0.6022  0.0693  0.0494
 2679WAT     H1 8248   0.702   4.117   4.647 -1.1937 -0.2853  0.1606
 2679WAT     H2 8249   0.706   3.978   4.589 -0.8362 -0.5549  0.8144
 2680WAT      O 8250   3.769   4.467   3.237  0.2146 -0.3487  0.1007
 2680WAT     H1 8251   3.851   4.501   3.272  0.7085 -0.0016 -1.3195
 2680WAT     H2 8252   3.714   4.545   3.224  0.2761 -0.3947 -0.4686
 2681WAT      O 8253   3.091   1.493   0.575  0.2846  0.2883 -0.4880
 2681WAT     H1 8254   3.180   1.529   0.566  2.4180 -3.9655  0.9876
 2681WAT     H2 8255   3.070   1.461   0.487  0.3785  0.9228 -0.7465
 2682WAT      O 8256   2.500   4.732   2.566  0.0896 -0.4063  0.3086
 2682WAT     H1 8257   2.479   4.682   2.487 -2.4574 -0.3249  0.8738
 2682WAT     H2 8258   2.518   4.820   2.535  0.3635 -0.6649 -0.2863
 2683WAT      O 8259   2.760   4.407   4.703  0.8092 -0.1928  0.4651
 2683WAT     H1 8260   2.807   4.442   4.779  0.2765  0.5416  0.4668
 2683WAT     H2 8261   2.805   4.325   4.683  2.9729  1.1435 -0.3987
 2684WAT      O 8262   2.650   1.596   5.518  0.4774  0.3493  0.1892
 2684WAT     H1 8263   2.627   1.554   5.435 -1.0127 -1.1540  1.2924
 2684WAT     H2 8264   2.628   1.531   5.584  2.7988  1.0113  1.7412
 2685WAT      O 8265   2.488   0.282   5.505  0.0667 -0.0655  0.2996
 2685WAT     H1 8266   2.572   0.255   5.542  0.4430 -1.7155 -1.5204
 2685WAT     H2 8267   2.502   0.278   5.410 -2.1665 -0.8589 -0.0737
 2686WAT      O 8268   2.060   0.383   3.242 -0.0129  0.1355 -0.0862
 2686WAT     H1 8269   1.988   0.325   3.218  1.8938 -1.4600 -2.3945
 2686WAT     H2 8270   2.114   0.331   3.301  1.1357 -0.1032 -1.3012
 2687WAT      O 8271   3.929   1.825   0.522 -0.2182 -0.3698 -0.2775
 2687WAT     H1 8272   3.850   1.818   0.469 -1.0579 -1.7964  1.0686
 2687WAT     H2 8273   3.903   1.790   0.608  1.0466  1.8558  1.1231
 2688WAT      O 8274   2.788   3.999   2.020  0.9667  0.3857 -0.4862
 2688WAT     H1 8275   2.809   4.092   2.021 -3.2389  1.5933  2.0754
 2688WAT     H2 8276   2.779   3.976   2.113  0.1015 -2.0523 -1.0969
 2689WAT      O 8277   2.617   5.160   0.368  0.4629 -0.1455 -0.0726
 2689WAT     H1 8278   2.531   5.148   0.408  0.6954  1.5149  0.9718
 2689WAT     H2 8279   2.605   5.131   0.277 -0.9241 -0.8443  0.3093
 2690WAT      O 8280   0.286   3.099   3.113  0.3544  0.3534  0.2254
 2690WAT     H1 8281   0.284   3.028   3.048  0.6686  0.5966 -0.0510
 2690WAT     H2 8282   0.194   3.111   3.137  0.1418  0.7968 -0.7636
 2691WAT      O 8283   1.907   1.550   0.755  0.4610 -0.2525  0.5397
 2691WAT     H1 8284   1.828   1.603   0.752  1.3406  1.1399  1.0013
 2691WAT     H2 8285   1.903   1.497   0.675 -1.9647 -1.8361  1.5702
 2692WAT      O 8286   2.508   0.511   4.921  0.9639 -0.4854 -0.0198
 2692WAT     H1 8287   2.554   0.434   4.955  0.7222 -0.0267  1.4099
 2692WAT     H2 8288   2.513   0.575   4.991  0.1176  0.3911 -0.7308
 2693WAT      O 8289   2.556   2.952   1.849  0.0036 -1.0769 -0.2693
 2693WAT     H1 8290   2.497   2.877   1.852 -2.0861  0.4780 -0.2322
 2693WAT     H2 8291   2.499   3.028   1.863  2.2389  0.4345  1.4932
 2694WAT      O 8292   2.001   1.311   3.851  0.2976  0.4273  0.2449
 2694WAT     H1 8293   1.957   1.394   3.833 -1.5437 -0.3932  0.7703
 2694WAT     H2 8294   1.947   1.268   3.917  0.5513 -1.7064 -0.8396
 2695WAT      O 8295   1.666   3.774   4.703 -0.1565  1.0884  0.8201
 2695WAT     H1 8296   1.591   3.832   4.708  0.3615  2.0932 -1.5188
 2695WAT     H2 8297   1.737   3.829   4.670  1.1630 -0.2191  1.3251
 2696WAT      O 8298   3.091   0.846   5.130 -0.1596 -0.3037  0.6295
 2696WAT     H1 8299   3.171   0.810   5.091 -0.0571  0.1417  0.4160
 2696WAT     H2 8300   3.123   0.913   5.191 -0.3067 -1.1437  1.6562
 2697WAT      O 8301   2.103   4.340   2.694 -0.6456 -0.3824  0.4191
 2697WAT     H1 8302   2.024   4.383   2.727 -1.4343 -1.3980 -0.1233
 2697WAT     H2 8303   2.173   4.375   2.750 -1.6560 -0.5361  1.8405
 2698WAT      O 8304   3.705   0.033   5.819 -0.2262  0.1071 -0.1092
 2698WAT     H1 8305   3.775  -0.021   5.856  0.3113  0.8751  0.0198
 2698WAT     H2 8306   3.625  -0.007   5.851  0.1303 -0.9772 -0.5148
 2699WAT      O 8307   0.876   1.954   2.427 -0.5082 -0.1775 -0.1872
 2699WAT     H1 8308   0.921   1.869   2.434 -1.3207 -0.4634  2.7489
 2699WAT     H2 8309   0.946   2.019   2.431  0.0853 -0.6490 -1.9880
 2700WAT      O 8310   4.143   3.056   0.996  0.6578 -0.5704 -0.3237
 2700WAT     H1 8311   4.181   3.112   1.063  1.8305 -3.4460  1.5839
 2700WAT     H2 8312   4.091   3.116   0.942  0.1273  2.0273  2.7457
 2701WAT      O 8313   2.445   1.711   0.966 -0.2350  0.4287  0.1674
 2701WAT     H1 8314   2.426   1.761   0.887 -2.3833  0.2795  0.5247
 2701WAT     H2 8315   2.394   1.754   1.034 -0.2069 -0.7794  0.9838
 2702WAT      O 8316   3.476   4.726   0.366  0.3634 -0.6211  0.0577
 2702WAT     H1 8317   3.507   4.642   0.399  0.5024 -0.5821  0.0276
 2702WAT     H2 8318   3.479   4.784   0.443  1.8895 -0.1929 -0.2781
 2703WAT      O 8319   2.691   5.588   5.784  0.0023 -0.0604 -0.5436
 2703WAT     H1 8320   2.761   5.543   5.737  1.4273  0.2674  1.1620
 2703WAT     H2 8321   2.735   5.659   5.831 -1.6975  1.0608 -0.5493
 2704WAT      O 8322   0.118   3.485   2.697  0.0884 -0.7270 -0.3762
 2704WAT     H1 8323   0.071   3.555   2.743  0.2304  1.7359 -3.6298
 2704WAT     H2 8324   0.177   3.449   2.763 -2.2898 -0.0805  2.3201
 2705WAT      O 8325   4.873   3.351   0.358  0.5433  0.5495 -0.2767
 2705WAT     H1 8326   4.919   3.411   0.417  1.3959  0.5618 -0.9247
 2705WAT     H2 8327   4.782   3.356   0.385  1.0276 -0.1541  1.6487
 2706WAT      O 8328   0.213   3.934   2.561 -0.1067 -0.1993  0.1212
 2706WAT     H1 8329   0.291   3.953   2.509 -0.4787  0.3643 -0.2436
 2706WAT     H2 8330   0.205   4.010   2.619 -2.6435  1.8550 -2.5788
 2707WAT      O 8331   0.248   3.001   0.503 -0.3595 -0.4834  0.2067
 2707WAT     H1 8332   0.183   2.942   0.466  0.4846 -1.0100 -0.4556
 2707WAT     H2 8333   0.297   2.948   0.566 -0.4250 -0.1490  0.5440
 2708WAT      O 8334   3.401   0.417   4.433  0.3009 -0.4343  0.0393
 2708WAT     H1 8335   3.324   0.455   4.476 -0.1590  0.5983 -1.6071
 2708WAT     H2 8336   3.365   0.367   4.360  1.1909  2.1549 -2.3491
 2709WAT      O 8337   1.109   2.462   0.266 -0.0937  0.3918  0.2551
 2709WAT     H1 8338   1.194   2.498   0.241  0.4276 -0.9913 -0.0509
 2709WAT     H2 8339   1.100   2.382   0.214 -0.4794 -0.8029  2.0642
 2710WAT      O 8340   0.031   2.431   1.314  0.0540 -0.4353 -0.2440
 2710WAT     H1 8341  -0.020   2.391   1.244 -1.1777 -0.5234  0.6718
 2710WAT     H2 8342   0.122   2.417   1.289 -0.3692 -1.6391 -1.1575
 2711WAT      O 8343   2.994   1.574   5.578 -0.8206  0.1482  0.1376
 2711WAT     H1 8344   2.941   1.504   5.618 -0.9432 -0.0188 -0.3062
 2711WAT     H2 8345   2.929   1.633   5.538 -0.6846 -1.2607 -2.4362
 2712WAT      O 8346   0.381   2.454   0.546  0.1276 -0.0168  0.1626
 2712WAT     H1 8347   0.396   2.547   0.530  2.9778 -0.2112  1.1770
 2712WAT     H2 8348   0.442   2.410   0.487 -0.5799 -1.2407  0.3129
 2713WAT      O 8349   2.577   2.182   3.233  0.1795  0.2182  0.0194
 2713WAT     H1 8350   2.619   2.102   3.264  0.5129  0.6846  0.7935
 2713WAT     H2 8351   2.600   2.187   3.140  0.1192 -0.5972 -0.0491
 2714WAT      O 8352   2.960   0.042   5.814 -0.3799  0.0634 -0.0256
 2714WAT     H1 8353   3.006  -0.017   5.755  3.2590 -0.4575  2.9515
 2714WAT     H2 8354   2.990   0.130   5.790 -0.6095  0.0703 -0.2909
 2715WAT      O 8355   0.892   2.989   1.244  0.0620  0.8233 -0.0771
 2715WAT     H1 8356   0.882   3.014   1.336 -0.6186  0.8361 -0.1499
 2715WAT     H2 8357   0.870   3.068   1.195 -1.4718  0.2930 -0.2908
 2716WAT      O 8358   0.737   3.323   3.959 -0.0700  0.5118 -0.3763
 2716WAT     H1 8359   0.771   3.407   3.990 -1.2129  0.6166  0.6457
 2716WAT     H2 8360   0.653   3.344   3.919 -1.8210 -0.4313  2.5000
 2717WAT      O 8361   3.733   3.120   0.705 -0.2473 -0.3891  0.3128
 2717WAT     H1 8362   3.750   3.155   0.618  0.5366 -1.6030 -0.0370
 2717WAT     H2 8363   3.640   3.139   0.721  0.1124  1.7634  0.1275
 2718WAT      O 8364   2.157   2.351   5.321 -0.0654 -0.3141 -0.4776
 2718WAT     H1 8365   2.221   2.398   5.375 -0.5534  1.1282 -1.0937
 2718WAT     H2 8366   2.203   2.272   5.292  1.2069  0.3644 -0.3696
 2719WAT      O 8367   2.009   5.432   5.575 -0.5658 -0.1175 -0.1332
 2719WAT     H1 8368   2.016   5.508   5.633 -0.6426  0.6713 -1.1249
 2719WAT     H2 8369   2.043   5.463   5.491 -1.0164 -1.0497 -0.6776
 2720WAT      O 8370   3.019   4.710   1.478  0.2113 -0.2570  0.6594
 2720WAT     H1 8371   3.097   4.694   1.532 -0.2003  1.4924  1.8403
 2720WAT     H2 8372   2.946   4.686   1.535 -0.1896  0.3208  0.3958
 2721WAT      O 8373   0.633   1.830   0.710 -0.2136  0.1731 -0.3167
 2721WAT     H1 8374   0.551   1.794   0.678 -0.2783  0.6670 -0.7242
 2721WAT     H2 8375   0.645   1.911   0.660  0.1930  0.4372  0.1950
 2722WAT      O 8376   2.224   0.707   5.081 -0.1390 -0.1880  0.7121
 2722WAT     H1 8377   2.221   0.792   5.036 -2.6187 -0.6983 -0.2583
 2722WAT     H2 8378   2.317   0.690   5.094  0.8480  0.1005 -4.1897
 2723WAT      O 8379   4.726   2.202   0.555  0.5843  0.2507  0.3828
 2723WAT     H1 8380   4.763   2.217   0.468  1.8521 -0.2023  0.8186
 2723WAT     H2 8381   4.798   2.164   0.605 -0.8320 -2.0146  0.8794
 2724WAT      O 8382   1.033   2.490   1.051 -0.5055  0.0853 -0.3167
 2724WAT     H1 8383   0.995   2.497   1.139 -0.4521  0.9271 -0.3567
 2724WAT     H2 8384   1.021   2.398   1.027  0.8403 -0.5495  1.2028
 2725WAT      O 8385   2.047   1.902   5.748  0.7089  0.2448  0.1774
 2725WAT     H1 8386   2.067   1.808   5.745  0.1713  0.0753  1.4484
 2725WAT     H2 8387   2.063   1.928   5.838  1.5023  1.5508 -0.3020
 2726WAT      O 8388   2.693   3.449   5.707  0.1136 -0.8673  0.4265
 2726WAT     H1 8389   2.781   3.455   5.744  0.1341 -0.2293  0.2796
 2726WAT     H2 8390   2.692   3.364   5.663  1.2083 -0.2028 -0.9686
 2727WAT      O 8391   1.750   1.671   2.776  0.3665 -0.8398 -0.4572
 2727WAT     H1 8392   1.753   1.575   2.777 -0.0052 -0.8441  0.7146
 2727WAT     H2 8393   1.663   1.693   2.807  1.1736 -0.0987  1.4140
 2728WAT      O 8394   1.311   1.282   2.020  0.1817 -0.5509 -0.7211
 2728WAT     H1 8395   1.271   1.288   1.934 -1.8254  3.5015  0.2512
 2728WAT     H2 8396   1.240   1.254   2.078  1.0856 -1.6709 -0.1031
 2729WAT      O 8397   4.294   0.940   5.471 -0.2862 -0.5693  0.4551
 2729WAT     H1 8398   4.326   0.878   5.405 -1.1969 -0.2693 -0.2944
 2729WAT     H2 8399   4.247   0.886   5.534 -3.0715 -0.4958 -1.3983
 2730WAT      O 8400   4.237   2.359   0.330 -0.3400 -0.5600 -0.1927
 2730WAT     H1 8401   4.142   2.369   0.331 -0.2865 -0.0882  0.2073
 2730WAT     H2 8402   4.270   2.428   0.388  0.3370  0.2947 -1.5252
 2731WAT      O 8403   3.032   1.076   3.793  0.5012 -0.4188  0.3216
 2731WAT     H1 8404   3.033   1.084   3.888  1.9791  0.2963  0.2821
 2731WAT     H2 8405   2.940   1.087   3.768  0.2995  0.9459  1.5522
 2732WAT      O 8406   2.825   1.239   0.589 -0.1117 -0.1850 -0.1092
 2732WAT     H1 8407   2.824   1.258   0.496 -1.2530  1.4010  0.1779
 2732WAT     H2 8408   2.786   1.317   0.630  0.7392 -0.6628  1.7189
 2733WAT      O 8409   0.413   2.958   4.265  0.0461  0.1140 -0.7654
 2733WAT     H1 8410   0.473   3.011   4.212 -2.6238  0.8894 -3.2790
 2733WAT     H2 8411   0.417   2.871   4.226 -0.6846  0.2681 -1.2123
 2734WAT      O 8412   4.283   1.235   3.072  0.2102 -0.0965  0.0022
 2734WAT     H1 8413   4.374   1.240   3.103  0.2243 -1.5021  0.2243
 2734WAT     H2 8414   4.238   1.181   3.137 -0.2531 -1.3525 -1.3117
 2735WAT      O 8415   2.124   0.587   0.936 -0.1185 -0.3117 -0.1654
 2735WAT     H1 8416   2.154   0.509   0.888 -1.8978  0.0714 -2.0391
 2735WAT     H2 8417   2.197   0.649   0.928  0.0646 -0.6648 -1.4649
 2736WAT      O 8418   1.013   2.896   0.882  0.0911 -0.0830  0.3405
 2736WAT     H1 8419   0.985   2.855   0.800  0.8384 -1.1894  0.6132
 2736WAT     H2 8420   0.932   2.929   0.922 -0.2300  0.8815 -1.0425
 2737WAT      O 8421   1.294   3.007   0.285 -0.2853  0.8122  0.1058
 2737WAT     H1 8422   1.334   3.055   0.357  0.7695 -0.9797  0.7595
 2737WAT     H2 8423   1.323   3.054   0.206  2.5597  0.0464  0.5995
 2738WAT      O 8424   2.295   3.208   4.068  0.3606 -0.2250  0.0888
 2738WAT     H1 8425   2.338   3.268   4.129  0.9365 -1.5715  1.0587
 2738WAT     H2 8426   2.202   3.227   4.078  0.4701 -0.1673  1.1199
 2739WAT      O 8427   2.291   1.865   1.164  0.3031 -0.1792 -0.1949
 2739WAT     H1 8428   2.305   1.852   1.258  0.8008 -2.9147 -0.5633
 2739WAT     H2 8429   2.329   1.951   1.146 -1.3577  1.2026  2.3537
 2740WAT      O 8430   3.561   4.072   1.562  0.0051  0.2679 -0.2017
 2740WAT     H1 8431   3.585   3.997   1.615 -1.4634  0.1917  0.3791
 2740WAT     H2 8432   3.604   4.056   1.478  1.1096 -0.3497  0.4530
 2741WAT      O 8433   4.659   4.308   1.977  0.4648  0.0697  0.5784
 2741WAT     H1 8434   4.614   4.243   1.923 -1.4914  2.1975 -0.5037
 2741WAT     H2 8435   4.736   4.332   1.926 -0.2186  0.4950 -0.2799
 2742WAT      O 8436   3.954   4.490   4.639 -0.3388  0.0666 -0.3267
 2742WAT     H1 8437   4.031   4.519   4.589  0.8431 -1.3113  0.6253
 2742WAT     H2 8438   3.949   4.396   4.623  0.2537 -0.4944  2.3235
 2743WAT      O 8439   3.175   4.324   1.764 -0.4814  0.1669 -0.4727
 2743WAT     H1 8440   3.202   4.363   1.847 -1.4818 -1.5146  0.7003
 2743WAT     H2 8441   3.093   4.368   1.742 -0.6665  0.0148 -0.0985
 2744WAT      O 8442   4.272   3.166   3.760  0.6056 -0.3075  0.0102
 2744WAT     H1 8443   4.283   3.078   3.797 -2.2786 -0.7438 -0.0087
 2744WAT     H2 8444   4.194   3.201   3.803  1.9155  2.4967  0.3633
 2745WAT      O 8445   3.919   5.247   4.754  0.4436 -0.3013 -0.2442
 2745WAT     H1 8446   3.947   5.168   4.799 -2.2458 -0.9624  0.4481
 2745WAT     H2 8447   3.926   5.226   4.661  2.2121 -0.3648 -0.1325
 2746WAT      O 8448   2.924   5.382   5.455 -0.4804  0.3579  0.3699
 2746WAT     H1 8449   2.859   5.423   5.398 -0.0663 -0.2737 -0.5694
 2746WAT     H2 8450   2.992   5.349   5.395  0.7843  1.1205  1.3287
 2747WAT      O 8451   3.930   1.284   0.147  0.3058  1.0616  0.0195
 2747WAT     H1 8452   3.841   1.316   0.162 -0.5672 -1.1522  0.0175
 2747WAT     H2 8453   3.947   1.226   0.221  1.4246  0.8025 -0.4196
 2748WAT      O 8454   3.287   4.946   2.357 -0.7416 -0.5519  0.0689
 2748WAT     H1 8455   3.312   5.028   2.314  1.3528 -0.7556  0.7968
 2748WAT     H2 8456   3.269   4.971   2.448 -0.1302 -0.8824  0.2840
 2749WAT      O 8457   3.865   1.377   0.824 -0.1609  0.0267  0.4240
 2749WAT     H1 8458   3.824   1.394   0.739  0.5902 -0.8532 -0.1443
 2749WAT     H2 8459   3.795   1.387   0.888 -0.8998  0.0043 -0.3758
 2750WAT      O 8460   4.395   2.429   1.634 -0.8782 -0.6044  0.2551
 2750WAT     H1 8461   4.365   2.349   1.590  0.2614 -1.2815  0.6749
 2750WAT     H2 8462   4.444   2.398   1.710 -0.8966  0.5098  0.7363
 2751WAT      O 8463   4.289   1.085   0.082 -0.3530 -0.4048 -0.4502
 2751WAT     H1 8464   4.347   1.135   0.026 -2.1468 -0.4331 -2.4479
 2751WAT     H2 8465   4.319   1.104   0.171  0.6264  2.1427 -1.2500
 2752WAT      O 8466   4.302   3.011   1.606  0.0425 -0.0362 -0.0258
 2752WAT     H1 8467   4.252   2.931   1.620 -0.0017 -0.0312 -0.1592
 2752WAT     H2 8468   4.259   3.054   1.532 -0.1108  0.2563  0.2327
 2753WAT      O 8469   1.355   2.797   0.036 -0.5941  0.2971 -0.6251
 2753WAT     H1 8470   1.273   2.839   0.060 -0.4536  0.5132 -0.5114
 2753WAT     H2 8471   1.360   2.719   0.091 -0.1625  0.9141  0.2254
 2754WAT      O 8472   0.062   2.490   0.162  0.0843  0.3634  0.0189
 2754WAT     H1 8473   0.100   2.434   0.230 -1.2796 -0.1242  0.4148
 2754WAT     H2 8474  -0.007   2.437   0.122 -0.3375  1.2832 -0.5252
 2755WAT      O 8475   2.622   0.976   1.146 -0.1640  0.6087 -0.5407
 2755WAT     H1 8476   2.716   0.991   1.130  0.0998  0.2080  0.5598
 2755WAT     H2 8477   2.604   1.023   1.228 -0.8491  0.4069 -0.5709
 2756WAT      O 8478   3.042   0.109   0.228 -0.5470  0.6995 -0.9213
 2756WAT     H1 8479   3.067   0.016   0.228  1.0614  1.1014 -0.3871
 2756WAT     H2 8480   2.971   0.114   0.165 -2.4490 -1.3484  0.8858
 2757WAT      O 8481   1.591   4.088   5.749  0.4852 -0.5324  0.5613
 2757WAT     H1 8482   1.668   4.145   5.739  0.4796 -0.3533  1.4677
 2757WAT     H2 8483   1.609   4.038   5.829 -0.6531  0.0084  1.1738
 2758WAT      O 8484   2.178   1.443   1.345  0.2552  0.2920 -0.2991
 2758WAT     H1 8485   2.154   1.354   1.372  1.0263  0.5561  1.3752
 2758WAT     H2 8486   2.232   1.476   1.416  1.4747  1.4800 -1.7089
 2759WAT      O 8487   1.272   4.116   0.686 -0.7252 -0.0360 -0.8109
 2759WAT     H1 8488   1.249   4.031   0.649  1.4213 -1.1788  0.2767
 2759WAT     H2 8489   1.307   4.166   0.612  0.7376 -1.2036 -0.9600
 2760WAT      O 8490   2.495   3.731   1.676 -0.0497 -0.0802  0.9018
 2760WAT     H1 8491   2.443   3.711   1.754  0.4648 -0.3779  1.1745
 2760WAT     H2 8492   2.538   3.648   1.655  0.3945  0.1888  0.7447
 2761WAT      O 8493   2.948   1.611   0.359 -0.3799  0.0519  0.0182
 2761WAT     H1 8494   3.016   1.642   0.300 -0.3763  0.4452  0.2228
 2761WAT     H2 8495   2.945   1.517   0.345 -0.3675  0.1387 -0.5912
 2762WAT      O 8496   3.860   4.554   5.670  0.2440 -0.8499 -0.2438
 2762WAT     H1 8497   3.829   4.571   5.758  1.3526 -0.4733  0.0945
 2762WAT     H2 8498   3.803   4.607   5.613  0.3961 -0.0007  0.3699
 2763WAT      O 8499   2.063   4.954   0.637 -0.0423 -0.5395 -0.6816
 2763WAT     H1 8500   2.020   4.934   0.721  2.5754 -0.4212  0.7791
 2763WAT     H2 8501   2.071   5.050   0.637  3.0012 -0.6896  0.6613
 2764WAT      O 8502   3.195   2.021   4.457 -0.2361  0.0658  0.4962
 2764WAT     H1 8503   3.140   2.060   4.525 -3.2820  1.9806 -2.7251
 2764WAT     H2 8504   3.169   1.929   4.454  0.2546 -0.1545  2.1022
 2765WAT      O 8505   0.677   1.560   0.538 -0.3824 -0.2986  0.0053
 2765WAT     H1 8506   0.772   1.565   0.547 -0.5021 -0.0784  1.2885
 2765WAT     H2 8507   0.655   1.626   0.473  0.1682  0.9492  1.0489
 2766WAT      O 8508   3.995   4.151   0.696  0.8082 -0.1459 -0.6336
 2766WAT     H1 8509   4.088   4.130   0.690  1.2877  1.7705 -0.6630
 2766WAT     H2 8510   3.987   4.204   0.776 -0.0032  0.8177 -1.3206
 2767WAT      O 8511   2.804   1.862   0.416 -0.2555  0.2354 -0.7588
 2767WAT     H1 8512   2.850   1.779   0.428 -1.5859 -0.7324 -1.9635
 2767WAT     H2 8513   2.766   1.856   0.328 -0.8128  1.9096 -0.6659
 2768WAT      O 8514   4.124   0.672   1.254  0.5876 -0.0893  0.1863
 2768WAT     H1 8515   4.072   0.750   1.235  0.5714 -0.3995 -1.1041
 2768WAT     H2 8516   4.091   0.641   1.338  0.0657  0.8519  0.3403
 2769WAT      O 8517   1.652   2.511   1.552 -0.0013 -0.4143  0.2424
 2769WAT     H1 8518   1.595   2.526   1.476 -0.7118 -0.2569  0.8005
 2769WAT     H2 8519   1.618   2.430   1.591  0.2889 -0.4333  0.4576
 2770WAT      O 8520   4.312   0.569   3.042 -0.8772 -0.1645 -0.5687
 2770WAT     H1 8521   4.231   0.518   3.049 -0.7679 -0.2266  0.3750
 2770WAT     H2 8522   4.322   0.610   3.128  0.5967 -0.9090 -0.3589
 2771WAT      O 8523   3.394   2.962   3.998  0.0711 -0.2628  0.5558
 2771WAT     H1 8524   3.342   2.937   3.922 -0.0293 -0.9935  0.8508
 2771WAT     H2 8525   3.483   2.972   3.964 -0.1926  0.6524  0.1146
 2772WAT      O 8526   2.146   3.471   3.176  0.6500 -0.1572 -0.5850
 2772WAT     H1 8527   2.221   3.417   3.199  1.2529  0.4852 -0.9845
 2772WAT     H2 8528   2.071   3.425   3.212  1.4478  0.3378  1.8917
 2773WAT      O 8529   4.775   3.143   0.866 -0.4706 -0.4273 -0.4097
 2773WAT     H1 8530   4.839   3.104   0.806  1.8172  2.3511  0.0201
 2773WAT     H2 8531   4.690   3.126   0.824  0.5261 -3.4070 -1.5152
 2774WAT      O 8532   3.655   4.204   5.630 -0.2112 -0.3878  0.3527
 2774WAT     H1 8533   3.582   4.246   5.584 -0.0014  0.5526  0.8449
 2774WAT     H2 8534   3.661   4.117   5.591 -1.2461 -0.2840 -0.0679
 2775WAT      O 8535   3.933   2.568   1.053 -0.4599 -0.3273 -0.9344
 2775WAT     H1 8536   3.943   2.662   1.066 -2.4867 -0.2343  0.3528
 2775WAT     H2 8537   4.022   2.537   1.038  0.3526  1.6653 -0.5797
 2776WAT      O 8538   0.982   3.812   2.440 -0.2888  0.4553 -0.3434
 2776WAT     H1 8539   0.989   3.727   2.484  1.1593  0.2688 -0.8934
 2776WAT     H2 8540   1.005   3.876   2.507  0.2151  0.2956 -0.3633
 2777WAT      O 8541   4.964   3.044   0.686  0.2241  0.0286  0.0167
 2777WAT     H1 8542   5.044   3.020   0.640 -0.0868 -3.1884  0.8995
 2777WAT     H2 8543   4.903   3.070   0.616  1.5613  1.2159 -0.7662
 2778WAT      O 8544   4.274   3.748   1.528 -0.0855  0.3275  0.0567
 2778WAT     H1 8545   4.342   3.681   1.536 -0.2450 -0.1187 -1.8945
 2778WAT     H2 8546   4.226   3.743   1.610  1.6989  0.0786  1.1350
 2779WAT      O 8547   2.357   2.283   2.865 -0.5026 -0.2244  0.1732
 2779WAT     H1 8548   2.377   2.202   2.818 -1.9626 -0.7683  0.4364
 2779WAT     H2 8549   2.423   2.288   2.933 -0.9303 -1.7126  0.7406
 2780WAT      O 8550   1.381   2.006   0.400 -0.3241 -0.0861  0.1765
 2780WAT     H1 8551   1.363   1.950   0.476 -0.0819  0.8639  0.9567
 2780WAT     H2 8552   1.441   1.955   0.347 -0.3872 -0.7196  0.6975
 2781WAT      O 8553   3.710   1.964   5.426  0.5790 -0.2191 -0.0728
 2781WAT     H1 8554   3.749   2.039   5.381  1.9979 -0.6418  0.4083
 2781WAT     H2 8555   3.782   1.927   5.478 -0.9635  0.2118  2.5047
 2782WAT      O 8556   3.469   2.237   1.864 -0.0544 -0.2868  0.2889
 2782WAT     H1 8557   3.502   2.265   1.950 -0.1464  0.9042 -0.0386
 2782WAT     H2 8558   3.539   2.182   1.829  0.5208  0.1996  0.6358
 2783WAT      O 8559   4.841   2.813   5.000 -0.4078  0.2879  0.2229
 2783WAT     H1 8560   4.933   2.800   4.981 -0.3116  0.5610  0.4810
 2783WAT     H2 8561   4.839   2.841   5.092 -0.6305  1.5681 -0.1472
 2784WAT      O 8562   2.077   2.062   0.604 -0.0508 -0.1854  0.0770
 2784WAT     H1 8563   2.132   2.047   0.680  0.9580  1.1275 -0.3542
 2784WAT     H2 8564   1.989   2.074   0.639  0.5871  1.5743  1.1790
 2785WAT      O 8565   4.590   1.428   1.520  0.2531 -0.2602  0.2202
 2785WAT     H1 8566   4.521   1.439   1.455  0.1499  0.2986  0.4222
 2785WAT     H2 8567   4.660   1.383   1.473 -0.2532 -0.8539  0.0210
 2786WAT      O 8568   1.604   3.102   4.574  0.2340 -0.3763  0.1721
 2786WAT     H1 8569   1.636   3.020   4.613  1.0943 -1.6292 -2.9006
 2786WAT     H2 8570   1.684   3.153   4.559  0.2489 -0.9999 -2.1373
 2787WAT      O 8571   3.076   0.192   1.929  0.6318  0.1070 -0.2900
 2787WAT     H1 8572   3.004   0.243   1.966  1.5280  0.9945  0.2693
 2787WAT     H2 8573   3.034   0.115   1.890 -0.4204 -0.6202  2.1268
 2788WAT      O 8574   0.777   1.641   1.952  0.0688  0.8245  0.0410
 2788WAT     H1 8575   0.785   1.590   2.032  0.2971 -1.1208 -1.1612
 2788WAT     H2 8576   0.690   1.680   1.957  0.1596  0.9137  1.3075
 2789WAT      O 8577   2.694   2.738   5.263 -0.3294 -0.1221 -0.6505
 2789WAT     H1 8578   2.777   2.690   5.263 -0.5445 -0.8381  3.3348
 2789WAT     H2 8579   2.630   2.674   5.233 -0.0157 -1.0228  0.5384
 2790WAT      O 8580   0.870   2.104   0.580 -0.0717 -0.2516  0.1101
 2790WAT     H1 8581   0.792   2.122   0.634 -0.0069 -3.2572  1.3950
 2790WAT     H2 8582   0.862   2.165   0.507 -1.8585  1.8409  1.8578
 2791WAT      O 8583   1.326   3.472   2.727  0.0977 -0.1240  0.9618
 2791WAT     H1 8584   1.276   3.476   2.646 -0.8417 -2.7389  1.3160
 2791WAT     H2 8585   1.260   3.478   2.796  0.6216 -0.4928  1.5025
 2792WAT      O 8586   1.759   2.622   2.739  0.0509 -0.6192 -0.1868
 2792WAT     H1 8587   1.769   2.716   2.756 -0.5562 -0.5281 -0.3010
 2792WAT     H2 8588   1.831   2.601   2.680 -0.4638  0.0276 -1.0825
 2793WAT      O 8589   0.361   3.594   3.852  0.0593  0.9356  0.6162
 2793WAT     H1 8590   0.393   3.577   3.941  1.2739 -1.8863 -0.2518
 2793WAT     H2 8591   0.435   3.571   3.795 -0.4543  3.2876 -1.1812
 2794WAT      O 8592   1.725   3.008   0.316  0.0649 -0.1659  0.5664
 2794WAT     H1 8593   1.785   2.935   0.332 -0.3397 -0.4166  0.9595
 2794WAT     H2 8594   1.740   3.068   0.389 -0.0207 -0.1341  0.5583
 2795WAT      O 8595   3.687   3.376   5.379  0.8250 -0.0313  0.2824
 2795WAT     H1 8596   3.592   3.366   5.376  0.9535 -1.3882 -0.0371
 2795WAT     H2 8597   3.701   3.470   5.388 -0.5422  0.1925  0.3008
 2796WAT      O 8598   0.659   3.204   5.195 -0.3042 -0.2316 -0.0576
 2796WAT     H1 8599   0.653   3.239   5.284 -1.2675 -1.8334  0.5489
 2796WAT     H2 8600   0.574   3.163   5.179  0.6613 -2.1037 -0.7505
 2797WAT      O 8601   1.307   3.598   1.482 -0.2976 -0.4886 -0.8464
 2797WAT     H1 8602   1.269   3.686   1.484 -0.4695 -0.5728 -0.1019
 2797WAT     H2 8603   1.234   3.540   1.461 -0.5024 -0.6074  0.1711
 2798WAT      O 8604   1.463   2.905   3.733 -0.0333  0.2756  0.2160
 2798WAT     H1 8605   1.456   2.893   3.638 -0.7980 -0.1152  0.3152
 2798WAT     H2 8606   1.444   2.819   3.769 -1.2186  0.7515  0.7794
 2799WAT      O 8607   2.516   0.101   3.976  0.0550  0.1818 -0.3159
 2799WAT     H1 8608   2.525   0.190   4.010  3.4530  0.0954 -0.6590
 2799WAT     H2 8609   2.468   0.054   4.045  0.1324  1.7475  0.8739
 2800WAT      O 8610   4.530   3.929   4.289 -0.4387  0.1738 -0.2581
 2800WAT     H1 8611   4.473   3.853   4.281 -0.9321  0.4867  0.2059
 2800WAT     H2 8612   4.503   3.970   4.371  0.2122  0.5291 -0.2190
 2801WAT      O 8613   0.985   1.944   4.172  0.9489 -0.4368  0.5220
 2801WAT     H1 8614   0.890   1.949   4.174  0.8155 -2.0209 -0.2650
 2801WAT     H2 8615   1.010   1.997   4.096  0.7311  0.1165  0.8256
 2802WAT      O 8616   2.079   3.369   4.432 -0.5341  0.1428 -0.2199
 2802WAT     H1 8617   2.061   3.385   4.339 -0.9309  0.8285 -0.0361
 2802WAT     H2 8618   2.019   3.428   4.478 -1.3442 -1.2062  0.5068
 2803WAT      O 8619   2.705   2.655   3.129  0.4859 -0.4220  0.3665
 2803WAT     H1 8620   2.731   2.599   3.202 -1.6272 -0.1352  1.3960
 2803WAT     H2 8621   2.766   2.729   3.134  0.5667 -0.5496  1.6515
 2804WAT      O 8622   3.034   5.502   5.678  0.0515 -0.4821 -0.3625
 2804WAT     H1 8623   3.009   5.449   5.753  1.3774 -0.9788 -0.2497
 2804WAT     H2 8624   2.995   5.458   5.602  1.0136 -1.5658 -0.2552
 2805WAT      O 8625   0.424   3.188   3.850 -0.4227  0.6907 -0.5909
 2805WAT     H1 8626   0.331   3.170   3.846 -0.3488  0.3629 -0.7908
 2805WAT     H2 8627   0.443   3.237   3.770 -0.4738  1.0013 -0.4172
 2806WAT      O 8628   1.882   0.610   2.677  0.0157  0.1808  0.7170
 2806WAT     H1 8629   1.873   0.638   2.767  2.0333  0.4494  0.8820
 2806WAT     H2 8630   1.879   0.690   2.625 -1.2036  0.0228  0.5029
 2807WAT      O 8631   2.854   0.725   5.083 -0.7212  0.8411 -0.5998
 2807WAT     H1 8632   2.935   0.770   5.108 -1.1889  0.8846  0.9252
 2807WAT     H2 8633   2.830   0.765   5.000  0.2378  1.6131 -0.5304
 2808WAT      O 8634   3.445   5.573   5.337  0.0405  0.2814  0.7384
 2808WAT     H1 8635   3.501   5.649   5.349  1.9567 -1.0628  0.8302
 2808WAT     H2 8636   3.454   5.549   5.245  1.2146 -1.0672  1.1603
 2809WAT      O 8637   2.646   2.618   4.164  0.1187 -0.0201  0.2453
 2809WAT     H1 8638   2.732   2.589   4.195  0.5340  0.3943 -0.4987
 2809WAT     H2 8639   2.605   2.656   4.242  0.3643 -0.7582  0.7476
 2810WAT      O 8640   3.242   4.056   3.780  1.0652 -0.6100  0.7862
 2810WAT     H1 8641   3.191   4.002   3.840  0.9936 -0.1367  1.1596
 2810WAT     H2 8642   3.201   4.142   3.784  1.0451 -0.5762  0.0318
 2811WAT      O 8643   2.865   3.755   4.701 -0.2751 -0.0566  0.1009
 2811WAT     H1 8644   2.860   3.851   4.695 -0.1437  0.1356  2.2306
 2811WAT     H2 8645   2.926   3.729   4.632 -2.5690  1.0527 -2.5520
 2812WAT      O 8646   2.680   2.278   1.527 -0.2768  0.1666  0.2627
 2812WAT     H1 8647   2.585   2.268   1.533 -0.3919  0.0864 -1.3237
 2812WAT     H2 8648   2.715   2.218   1.592 -1.3153  0.4536  1.1106
 2813WAT      O 8649   4.546   3.034   3.132 -0.5563 -0.6413  0.0675
 2813WAT     H1 8650   4.465   3.035   3.082 -0.5221 -2.0378 -0.0729
 2813WAT     H2 8651   4.577   2.943   3.125  0.8411 -0.2140  0.3983
 2814WAT      O 8652   4.382   2.746   5.526 -0.5210  0.5353 -0.2930
 2814WAT     H1 8653   4.321   2.726   5.598  0.3442 -1.6817 -0.0866
 2814WAT     H2 8654   4.335   2.719   5.447  1.0803 -4.3530  0.0504
 2815WAT      O 8655   0.833   4.234   2.500 -0.2397 -0.0883 -0.2314
 2815WAT     H1 8656   0.777   4.202   2.571 -2.5403 -1.8069 -2.6298
 2815WAT     H2 8657   0.920   4.242   2.540 -1.7301  0.9067  3.2171
 2816WAT      O 8658   0.240   1.705   0.170  0.4952  0.1048 -0.0409
 2816WAT     H1 8659   0.299   1.746   0.234  1.1182 -0.8255 -0.0005
 2816WAT     H2 8660   0.170   1.769   0.158 -1.2936 -0.8507  3.8374
 2817WAT      O 8661   1.947   5.518   4.546 -0.0505 -0.5569  0.2392
 2817WAT     H1 8662   1.939   5.511   4.450  0.1266 -0.0597  0.1823
 2817WAT     H2 8663   1.877   5.462   4.580 -0.6657 -0.0591 -0.1861
 2818WAT      O 8664   2.625   0.292   4.318 -0.0546 -0.3218  0.1143
 2818WAT     H1 8665   2.634   0.221   4.381  3.2552 -2.0774 -2.0770
 2818WAT     H2 8666   2.663   0.368   4.362  1.5325 -1.3266  0.5506
 2819WAT      O 8667   2.329   3.383   0.206  0.1236 -0.1577  0.2401
 2819WAT     H1 8668   2.417   3.421   0.211 -0.1192  0.4954 -0.2978
 2819WAT     H2 8669   2.318   3.362   0.114 -0.8614  1.2215  0.0074
 2820WAT      O 8670   3.519   2.881   4.515  0.1793  0.2772 -0.2692
 2820WAT     H1 8671   3.555   2.798   4.546 -2.4322 -0.7212  0.3267
 2820WAT     H2 8672   3.547   2.887   4.424  2.1270 -0.1733  0.2360
 2821WAT      O 8673   3.163   0.561   3.258  0.3208 -0.8665 -0.1196
 2821WAT     H1 8674   3.176   0.650   3.290  1.4033 -2.3756  4.4098
 2821WAT     H2 8675   3.250   0.531   3.233  0.5853 -1.5623  1.4871
 2822WAT      O 8676   3.543   5.050   2.636  0.1486  0.3040 -0.2312
 2822WAT     H1 8677   3.452   5.037   2.609 -0.4050  2.7100  0.2425
 2822WAT     H2 8678   3.594   5.000   2.572 -1.4206  0.6818 -1.8729
 2823WAT      O 8679   4.073   2.104   4.808  0.3027  0.0377 -0.8620
 2823WAT     H1 8680   4.087   2.150   4.891  0.4177  0.7109 -1.2442
 2823WAT     H2 8681   4.155   2.058   4.792  2.5047  4.2166 -3.2547
 2824WAT      O 8682   4.115   1.281   5.240 -0.1853  0.5029 -0.4501
 2824WAT     H1 8683   4.056   1.290   5.315  0.8650  0.2661  0.4187
 2824WAT     H2 8684   4.125   1.187   5.228 -0.2600  0.5396 -0.8267
 2825WAT      O 8685   2.986   0.221   4.443  0.3259  0.1944  0.7622
 2825WAT     H1 8686   3.062   0.190   4.492 -1.1109  0.2011  3.1456
 2825WAT     H2 8687   3.021   0.289   4.385  2.0442  0.6800  2.2790
 2826WAT      O 8688   3.476   2.777   5.105  0.3522 -0.5185  0.2192
 2826WAT     H1 8689   3.472   2.742   5.016  0.4292 -0.9131  0.3668
 2826WAT     H2 8690   3.506   2.867   5.094  0.0230 -0.4561 -0.1790
 2827WAT      O 8691   1.874   4.337   0.910 -0.2421 -0.0295  0.1490
 2827WAT     H1 8692   1.915   4.259   0.872  0.0984  0.2905 -0.1508
 2827WAT     H2 8693   1.796   4.304   0.955 -0.6788 -0.4155 -0.8696
 2828WAT      O 8694   3.829   2.326   4.315 -0.0353  0.3590 -0.9169
 2828WAT     H1 8695   3.918   2.295   4.330 -0.4022  0.7441  3.3293
 2828WAT     H2 8696   3.776   2.284   4.383 -2.5438  2.2470 -1.5164
 2829WAT      O 8697   3.966   0.913   5.598  0.0416  0.2658 -0.0442
 2829WAT     H1 8698   3.908   0.945   5.529 -1.2761 -0.4687  0.6862
 2829WAT     H2 8699   3.987   0.991   5.650  1.3871  0.9073 -1.4699
 2830WAT      O 8700   0.462   1.685   3.842 -0.0830  0.5052 -0.2888
 2830WAT     H1 8701   0.464   1.755   3.908 -2.2341  0.6117 -0.2928
 2830WAT     H2 8702   0.518   1.617   3.879 -1.5229  0.4065  1.8742
 2831WAT      O 8703   2.333   1.035   4.520  0.3011 -0.1142 -0.1250
 2831WAT     H1 8704   2.335   0.967   4.587 -0.8264  0.8038  0.8814
 2831WAT     H2 8705   2.241   1.042   4.496  0.5755  0.2182 -1.1169
 2832WAT      O 8706   1.403   3.858   4.706 -0.4839  0.2625 -0.6155
 2832WAT     H1 8707   1.389   3.851   4.801  0.7591 -0.4091 -0.4649
 2832WAT     H2 8708   1.326   3.906   4.674 -1.4306 -0.3945  0.5840
 2833WAT      O 8709   4.497   2.521   0.458  0.0181  0.1112 -0.6331
 2833WAT     H1 8710   4.546   2.557   0.384 -0.2309 -1.1563 -1.4362
 2833WAT     H2 8711   4.431   2.589   0.477  1.1486  1.1985 -0.4491
 2834WAT      O 8712   3.975   4.886   5.483 -0.7340 -0.0072  0.0649
 2834WAT     H1 8713   3.998   4.795   5.501  1.8501  0.0140 -2.3821
 2834WAT     H2 8714   4.036   4.937   5.537  2.3316  0.0757 -3.1166
 2835WAT      O 8715   4.741   1.365   0.398  0.1569  0.3963  0.1021
 2835WAT     H1 8716   4.647   1.347   0.387 -0.0557  0.7322  1.2872
 2835WAT     H2 8717   4.753   1.373   0.492  1.6671 -1.1371  0.0852
 2836WAT      O 8718   3.746   3.269   2.808 -0.0843  0.4298 -0.5336
 2836WAT     H1 8719   3.776   3.187   2.769 -1.6711  0.0983 -1.1339
 2836WAT     H2 8720   3.826   3.318   2.824  1.0060 -1.6357  0.7921
 2837WAT      O 8721   1.351   2.627   4.919  0.8341  0.1108  0.2245
 2837WAT     H1 8722   1.363   2.712   4.961 -0.7995  0.4067  0.1822
 2837WAT     H2 8723   1.266   2.596   4.952  0.2696 -0.3975 -1.5692
 2838WAT      O 8724   0.054   1.882   0.088  0.0615  0.3051 -0.4074
 2838WAT     H1 8725   0.061   1.977   0.082 -1.4729  0.4490 -0.3574
 2838WAT     H2 8726  -0.015   1.859   0.026 -0.6129 -0.6024  0.6350
 2839WAT      O 8727   3.290   5.332   1.751  0.5993 -0.2201  0.2644
 2839WAT     H1 8728   3.270   5.274   1.824  1.5757 -0.2994  0.4846
 2839WAT     H2 8729   3.205   5.352   1.712 -0.1635  1.3106  2.5305
 2840WAT      O 8730   4.744   3.710   4.551 -0.2932 -0.0144  0.3293
 2840WAT     H1 8731   4.786   3.782   4.598 -1.3237  0.9947 -0.2636
 2840WAT     H2 8732   4.654   3.708   4.583  0.1124 -2.1239  1.5401
 2841WAT      O 8733   1.591   1.051   0.800 -0.7954  0.4756  0.0463
 2841WAT     H1 8734   1.640   1.067   0.718  2.0728 -1.6225  1.1757
 2841WAT     H2 8735   1.570   0.958   0.797 -1.5250  0.5873  1.2848
 2842WAT      O 8736   1.191   3.380   4.075 -0.1420 -0.5174  0.9657
 2842WAT     H1 8737   1.169   3.472   4.084 -1.3192 -0.7656  0.8000
 2842WAT     H2 8738   1.270   3.379   4.021  0.3494  0.4195  1.6425
 2843WAT      O 8739   4.519   4.288   5.299 -0.4248  0.5831 -0.1373
 2843WAT     H1 8740   4.454   4.226   5.331 -0.0603 -1.1663 -2.5019
 2843WAT     H2 8741   4.490   4.373   5.333 -3.1704 -0.3071  0.0270
 2844WAT      O 8742   4.480   2.087   4.420  0.2776 -0.0011 -0.7182
 2844WAT     H1 8743   4.461   2.125   4.505  1.7143 -1.3030  0.2502
 2844WAT     H2 8744   4.408   2.026   4.404 -0.1941  0.5234 -0.6291
 2845WAT      O 8745   3.604   1.100   2.367 -0.1650 -0.4362  0.3591
 2845WAT     H1 8746   3.689   1.135   2.393 -0.2830 -0.2737  0.5280
 2845WAT     H2 8747   3.552   1.101   2.448 -0.9788  1.3313 -0.1281
 2846WAT      O 8748   1.784   4.794   5.304 -0.2060  0.3034 -0.4165
 2846WAT     H1 8749   1.819   4.867   5.356  0.3775  0.6949 -1.3304
 2846WAT     H2 8750   1.807   4.716   5.354 -0.7413  0.7326  0.5230
 2847WAT      O 8751   4.065   0.198   5.641  0.3262  0.4736  0.9234
 2847WAT     H1 8752   3.980   0.243   5.646  0.6793  1.0666  1.8860
 2847WAT     H2 8753   4.115   0.249   5.578 -0.0460  0.0820  0.2992
 2848WAT      O 8754   2.279   0.061   1.264 -0.2066 -0.3250  0.6128
 2848WAT     H1 8755   2.346   0.102   1.318  0.7529  0.7924 -1.3064
 2848WAT     H2 8756   2.213   0.130   1.251  0.0573 -0.2512 -0.3996
 2849WAT      O 8757   3.127   5.605   5.034 -0.0006 -0.0087  0.2327
 2849WAT     H1 8758   3.118   5.695   5.001 -2.8731  0.2076  1.2972
 2849WAT     H2 8759   3.062   5.555   4.984 -0.6684 -0.7869  1.8182
 2850WAT      O 8760   3.291   4.831   3.440  0.5183 -0.2400  0.6631
 2850WAT     H1 8761   3.234   4.754   3.442 -0.0182  0.1450  0.1438
 2850WAT     H2 8762   3.380   4.794   3.445  0.2531 -0.8694  0.8420
 2851WAT      O 8763   3.835   1.671   0.101 -0.1994  0.4865 -0.3237
 2851WAT     H1 8764   3.911   1.633   0.144 -0.3940 -0.4806 -0.8010
 2851WAT     H2 8765   3.795   1.727   0.168  1.1994  1.4254 -0.2214
 2852WAT      O 8766   4.317   1.877   5.129 -0.0233 -0.1324 -0.3316
 2852WAT     H1 8767   4.363   1.798   5.101 -0.4737 -0.4028 -0.3240
 2852WAT     H2 8768   4.374   1.915   5.196 -0.0600 -0.7517  0.0638
 2853WAT      O 8769   3.646   3.157   3.053  0.3646  0.4192 -0.0316
 2853WAT     H1 8770   3.689   3.216   3.116  1.3663 -0.0806 -0.2210
 2853WAT     H2 8771   3.677   3.187   2.968  1.7399 -1.0159 -0.0681
 2854WAT      O 8772   1.734   2.421   5.320  0.6244 -0.0278 -0.4636
 2854WAT     H1 8773   1.697   2.411   5.408  1.4251 -1.6837 -0.2651
 2854WAT     H2 8774   1.749   2.515   5.310 -0.7191  0.3405  0.6337
 2855WAT      O 8775   0.574   1.862   4.363 -0.3003  0.2098  0.1319
 2855WAT     H1 8776   0.510   1.805   4.320 -1.1278  0.2602  1.2671
 2855WAT     H2 8777   0.531   1.947   4.367 -0.2803  0.1730  1.1793
 2856WAT      O 8778   1.799   1.068   2.744 -0.0745 -0.2796  0.3547
 2856WAT     H1 8779   1.741   1.107   2.678  0.1332 -0.6608 -0.0600
 2856WAT     H2 8780   1.835   1.143   2.791  0.3003  0.0353 -0.4183
 2857WAT      O 8781   1.081   1.728   4.781  0.1584 -0.8242 -0.3651
 2857WAT     H1 8782   1.037   1.709   4.698  0.4692 -0.5382 -0.5980
 2857WAT     H2 8783   1.142   1.799   4.760 -1.3974  0.9059  0.5727
 2858WAT      O 8784   0.815   3.515   2.235  0.3049 -0.0684 -0.0405
 2858WAT     H1 8785   0.895   3.567   2.243 -0.9611  2.4039 -1.7733
 2858WAT     H2 8786   0.774   3.521   2.321  0.5891  1.2029  0.0305
 2859WAT      O 8787   4.088   5.527   3.040  0.5669  0.3983 -0.1738
 2859WAT     H1 8788   4.042   5.603   3.004 -1.9432 -2.0803 -2.7429
 2859WAT     H2 8789   4.028   5.493   3.106 -0.1267 -1.3576 -1.6468
 2860WAT      O 8790   3.898   2.186   2.501  0.4560  0.1714  0.0685
 2860WAT     H1 8791   3.812   2.211   2.537  0.2934  0.1293 -0.2805
 2860WAT     H2 8792   3.922   2.106   2.548 -0.1140 -0.3190 -0.4519
 2861WAT      O 8793   0.477   3.456   1.833 -0.3779  0.5079 -0.4464
 2861WAT     H1 8794   0.455   3.542   1.798  3.0441  1.7949  0.1784
 2861WAT     H2 8795   0.542   3.473   1.900  0.8988 -2.6147 -0.6990
 2862WAT      O 8796   2.530   3.424   2.876 -0.5991  0.0994  0.5515
 2862WAT     H1 8797   2.482   3.353   2.919 -0.1451  0.8386  2.3584
 2862WAT     H2 8798   2.466   3.496   2.870  0.6156  1.7985  4.7793
 2863WAT      O 8799   3.299   2.992   4.262  0.1722  0.1077  0.3843
 2863WAT     H1 8800   3.331   3.070   4.308  2.2967 -0.7618  0.4707
 2863WAT     H2 8801   3.330   3.002   4.172 -0.4339 -0.1603  0.1405
 2864WAT      O 8802   4.605   1.920   5.782  0.2369  0.1553 -0.4974
 2864WAT     H1 8803   4.668   1.848   5.779  1.7601  1.3619  0.6658
 2864WAT     H2 8804   4.523   1.879   5.809  0.2096 -1.6018 -2.9165
 2865WAT      O 8805   1.608   3.535   3.629 -0.1468  0.0360  0.4102
 2865WAT     H1 8806   1.653   3.516   3.711 -0.2138  2.8679  1.2044
 2865WAT     H2 8807   1.668   3.591   3.580 -1.0247  0.2351 -0.4817
 2866WAT      O 8808   1.241   2.547   3.091  0.3475  0.1082  0.4755
 2866WAT     H1 8809   1.229   2.556   2.996  1.9217  0.4210  0.2760
 2866WAT     H2 8810   1.267   2.456   3.103 -1.4799 -0.4169  0.8409
 2867WAT      O 8811   2.385   0.642   1.876  0.2372 -0.6438 -0.0750
 2867WAT     H1 8812   2.353   0.562   1.917 -0.7345  0.1830  0.8334
 2867WAT     H2 8813   2.314   0.670   1.818  0.0840  0.1471  0.4712
 2868WAT      O 8814   2.664   1.808   4.619  0.0693 -0.6479 -0.0139
 2868WAT     H1 8815   2.706   1.762   4.546  0.5305 -1.2532  0.6165
 2868WAT     H2 8816   2.669   1.901   4.595  0.2613 -0.8397 -0.7276
 2869WAT      O 8817   1.559   2.676   5.460  0.2605 -0.5360 -0.2933
 2869WAT     H1 8818   1.501   2.714   5.525 -1.1629 -0.8810 -1.3137
 2869WAT     H2 8819   1.522   2.589   5.443  1.3512 -0.9540 -0.6405
 2870WAT      O 8820   0.565   3.228   5.441  0.1201  0.0280 -0.5873
 2870WAT     H1 8821   0.545   3.134   5.438 -0.2650  0.1047 -0.4260
 2870WAT     H2 8822   0.536   3.256   5.527 -1.5435  0.7016 -1.3352
 2871WAT      O 8823   0.851   2.954   5.584 -0.4347 -0.0910 -0.5320
 2871WAT     H1 8824   0.802   3.000   5.652  0.0641 -0.4378  0.0730
 2871WAT     H2 8825   0.850   3.013   5.510 -1.0423  0.2693 -0.2451
 2872WAT      O 8826   3.895   0.287   3.462  0.9969  0.7185 -0.4608
 2872WAT     H1 8827   3.961   0.235   3.509  0.5030  0.8279  0.3677
 2872WAT     H2 8828   3.834   0.314   3.529 -0.1581  0.2420 -1.2914
 2873WAT      O 8829   3.190   0.128   0.478  0.5241 -0.0011 -0.1377
 2873WAT     H1 8830   3.173   0.221   0.493  2.3830  0.1708  1.2935
 2873WAT     H2 8831   3.161   0.113   0.388 -0.1186  1.8856 -0.2892
 2874WAT      O 8832   1.813   3.346   5.233  0.2843  0.0808 -0.3312
 2874WAT     H1 8833   1.850   3.427   5.268  0.2332 -0.0135 -0.0583
 2874WAT     H2 8834   1.743   3.375   5.175  1.2647  0.3021 -1.4630
 2875WAT      O 8835   4.062   1.606   4.895 -0.0776 -0.6587 -0.7370
 2875WAT     H1 8836   3.974   1.622   4.861 -0.7495 -2.0348  0.2860
 2875WAT     H2 8837   4.065   1.512   4.911  1.0558 -0.4174  0.6762
 2876WAT      O 8838   4.936   2.511   1.056 -0.3370  0.0343 -0.3012
 2876WAT     H1 8839   4.862   2.568   1.074  0.1511  0.4609  0.4155
 2876WAT     H2 8840   4.897   2.425   1.039 -0.9667  0.1171  0.6775
 2877WAT      O 8841   1.175   3.193   0.582 -0.0127  0.1248  0.0459
 2877WAT     H1 8842   1.174   3.279   0.622  0.3081  0.8327 -1.3937
 2877WAT     H2 8843   1.260   3.187   0.540 -0.5131 -0.3564 -0.9465
 2878WAT      O 8844   3.667   2.658   5.813 -0.6869 -0.6927  0.2405
 2878WAT     H1 8845   3.698   2.579   5.859 -0.4675 -0.3812  0.6306
 2878WAT     H2 8846   3.737   2.679   5.751  0.7485  1.0060  2.2902
 2879WAT      O 8847   0.939   2.036   4.914  0.6714 -0.5542  0.6975
 2879WAT     H1 8848   0.913   2.125   4.893  0.9960 -0.7291 -0.5243
 2879WAT     H2 8849   0.997   2.010   4.842  1.1441 -1.5047  1.3918
 2880WAT      O 8850   1.446   3.398   4.403  0.3432 -0.1492 -0.5618
 2880WAT     H1 8851   1.520   3.443   4.363  0.7694 -0.4723 -0.1351
 2880WAT     H2 8852   1.425   3.328   4.340  0.8229 -0.4687 -0.3737
 2881WAT      O 8853   1.594   2.092   4.951  0.3673 -0.4905  0.6059
 2881WAT     H1 8854   1.629   2.091   4.862 -0.5172 -0.3821  0.2475
 2881WAT     H2 8855   1.648   2.155   4.998  2.8677 -2.7362  1.0002
 2882WAT      O 8856   3.689   5.211   5.525 -0.1363 -0.7523 -0.4951
 2882WAT     H1 8857   3.633   5.287   5.516  0.6977 -0.2314 -1.4196
 2882WAT     H2 8858   3.742   5.210   5.445  0.6724 -1.6289  0.0304
 2883WAT      O 8859   4.874   3.889   4.737 -0.3995 -0.2105 -0.2133
 2883WAT     H1 8860   4.944   3.836   4.698  1.0982  2.1244 -0.9871
 2883WAT     H2 8861   4.910   3.917   4.822 -0.1098  1.4190 -0.8346
 2884WAT      O 8862   3.003   3.356   1.242  0.3008  0.5568  0.3646
 2884WAT     H1 8863   2.934   3.356   1.176 -0.5238  2.0899  1.1835
 2884WAT     H2 8864   3.029   3.448   1.249  2.4284  0.0240  0.0973
 2885WAT      O 8865   1.151   1.886   5.322 -0.7816  0.0312  0.3736
 2885WAT     H1 8866   1.095   1.960   5.345  0.2084  0.4660  1.4847
 2885WAT     H2 8867   1.190   1.858   5.405  1.3077  0.3221 -0.4403
 2886WAT      O 8868   4.960   1.928   0.391  0.5211 -0.2314 -0.3096
 2886WAT     H1 8869   4.995   1.876   0.318  0.8395  0.2423 -0.4981
 2886WAT     H2 8870   4.875   1.888   0.410  1.2090 -1.4672  0.2351
 2887WAT      O 8871   3.069   1.924   3.322 -0.1007  0.5334 -0.0968
 2887WAT     H1 8872   3.009   1.851   3.307 -0.6573  0.8537  0.4878
 2887WAT     H2 8873   3.146   1.884   3.362  0.4944 -0.0174 -1.7311
 2888WAT      O 8874   1.282   2.148   4.071 -0.1600 -0.1337 -0.1027
 2888WAT     H1 8875   1.355   2.125   4.014 -1.3812  0.1433 -1.8418
 2888WAT     H2 8876   1.204   2.137   4.017 -1.3305  0.8111  1.3060
 2889WAT      O 8877   3.048   1.238   3.220  0.3573  0.2240 -0.1290
 2889WAT     H1 8878   3.032   1.184   3.143  0.9965 -0.3937  0.1626
 2889WAT     H2 8879   3.018   1.185   3.294  0.7587  0.3675  0.1397
 2890WAT      O 8880   1.881   1.597   3.391 -0.5172 -0.3387 -0.5178
 2890WAT     H1 8881   1.908   1.525   3.448  0.4920 -1.0162 -1.7824
 2890WAT     H2 8882   1.961   1.620   3.343 -1.3144  0.2251 -1.6145
 2891WAT      O 8883   1.684   3.690   3.073  0.1421  0.0466  0.0920
 2891WAT     H1 8884   1.665   3.771   3.025  0.2431  0.1327  0.1979
 2891WAT     H2 8885   1.612   3.631   3.049 -0.0853  0.2618  0.2394
 2892WAT      O 8886   0.257   2.282   5.531 -0.4801  0.6795  0.6727
 2892WAT     H1 8887   0.248   2.374   5.506  0.9490  1.6431  3.2653
 2892WAT     H2 8888   0.254   2.283   5.627 -2.6065 -2.2825  0.8154
 2893WAT      O 8889   3.839   1.589   3.162 -0.2564 -0.4032 -0.1667
 2893WAT     H1 8890   3.856   1.523   3.229  0.6316  0.6148  0.6497
 2893WAT     H2 8891   3.770   1.644   3.198  1.4919  1.2794  0.8164
 2894WAT      O 8892   4.798   2.806   3.783  0.4917  0.4031  0.3789
 2894WAT     H1 8893   4.869   2.820   3.846  0.5782  0.3402  0.2955
 2894WAT     H2 8894   4.763   2.894   3.767  0.3946  0.4050  0.6032
 2895WAT      O 8895   2.137   5.548   0.569  0.0426  0.2288  0.2322
 2895WAT     H1 8896   2.082   5.624   0.586 -1.9773 -1.1865  0.4164
 2895WAT     H2 8897   2.118   5.524   0.478 -1.7783 -1.8279  1.0732
 2896WAT      O 8898   1.814   3.955   0.368 -0.0131  0.2472 -0.1767
 2896WAT     H1 8899   1.881   3.999   0.421  2.3570 -0.9623 -1.9838
 2896WAT     H2 8900   1.782   3.885   0.424  0.0407  0.9718  0.7945
 2897WAT      O 8901   4.219   1.504   2.077  0.2137  0.1805 -0.5811
 2897WAT     H1 8902   4.168   1.583   2.098  1.8525  1.3516 -0.8608
 2897WAT     H2 8903   4.213   1.451   2.157  0.2516  1.2364  0.1479
 2898WAT      O 8904   2.244   4.884   4.418 -0.6060  0.8090  0.0622
 2898WAT     H1 8905   2.323   4.830   4.415  0.4077  2.1859  0.9251
 2898WAT     H2 8906   2.254   4.937   4.497 -1.9735  1.6373 -0.2896
 2899WAT      O 8907   3.897   3.214   0.031  0.4040  0.3789  0.1838
 2899WAT     H1 8908   3.902   3.304  -0.003  0.4971 -0.1002 -1.1053
 2899WAT     H2 8909   3.811   3.183   0.003  0.5062 -0.0564  0.3456
 2900WAT      O 8910   1.492   3.384   5.442  0.4617 -0.1647  0.6298
 2900WAT     H1 8911   1.573   3.349   5.480  1.6112 -0.1756 -1.6813
 2900WAT     H2 8912   1.423   3.329   5.479  1.4496 -0.0727  2.7609
 2901WAT      O 8913   1.852   3.159   5.828  0.0921 -0.2783  0.0388
 2901WAT     H1 8914   1.920   3.120   5.883 -0.7875 -1.4041  0.3666
 2901WAT     H2 8915   1.849   3.103   5.750  0.2694  0.3966 -0.4606
 2902WAT      O 8916   0.727   3.793   3.843 -0.1423 -0.0300  0.4984
 2902WAT     H1 8917   0.784   3.735   3.793 -2.8936 -0.4935 -2.4496
 2902WAT     H2 8918   0.774   3.877   3.847  1.0710 -0.6029 -1.0962
 2903WAT      O 8919   1.451   3.469   0.779 -0.3259  0.4572 -0.0739
 2903WAT     H1 8920   1.499   3.412   0.839 -0.2538  0.3147 -0.2642
 2903WAT     H2 8921   1.513   3.485   0.707 -0.5812  0.2289 -0.3462
 2904WAT      O 8922   2.675   5.028   2.066  0.2516 -0.6499  0.0105
 2904WAT     H1 8923   2.630   4.958   2.114 -3.5826  1.0996 -0.6844
 2904WAT     H2 8924   2.623   5.041   1.987  2.1641  1.4795 -1.0167
 2905WAT      O 8925   0.859   3.169   3.783  0.1386 -0.2438  0.8394
 2905WAT     H1 8926   0.858   3.086   3.829  1.8387 -0.1666  1.0898
 2905WAT     H2 8927   0.794   3.223   3.828 -0.4792 -1.1965  1.1103
 2906WAT      O 8928   2.575   4.339   0.187  0.2715  0.1812  0.3277
 2906WAT     H1 8929   2.604   4.390   0.111 -1.0132  0.3810 -0.0614
 2906WAT     H2 8930   2.510   4.396   0.230 -0.7038 -0.8360  0.2609
 2907WAT      O 8931   4.327   4.666   0.014  0.0509  0.4759  0.1769
 2907WAT     H1 8932   4.317   4.602   0.085 -0.3038 -0.6189 -0.8375
 2907WAT     H2 8933   4.301   4.750   0.054  0.4060 -0.0134  1.4938
 2908WAT      O 8934   3.841   4.932   4.299 -0.5358  0.8837 -0.4759
 2908WAT     H1 8935   3.853   5.019   4.338  0.5685  0.6150 -0.1785
 2908WAT     H2 8936   3.760   4.940   4.248 -0.2673  2.1976 -0.7567
 2909WAT      O 8937   2.167   4.278   3.768 -0.1641 -0.2313  0.3470
 2909WAT     H1 8938   2.232   4.209   3.782  0.5883  0.5118  0.6201
 2909WAT     H2 8939   2.185   4.311   3.681 -0.4163 -0.2636  0.2818
 2910WAT      O 8940   3.942   1.646   5.213  0.1411 -0.3839 -0.5797
 2910WAT     H1 8941   4.022   1.625   5.261 -0.8190 -0.0302  1.2871
 2910WAT     H2 8942   3.940   1.742   5.211 -0.1487 -0.3906 -0.7907
 2911WAT      O 8943   2.978   3.376   4.611 -0.3717 -0.3598 -0.3518
 2911WAT     H1 8944   2.984   3.447   4.546  0.3335 -1.2599 -1.3103
 2911WAT     H2 8945   2.884   3.356   4.615 -0.8276  1.6730  1.1586
 2912WAT      O 8946   3.443   0.367   3.379 -0.1495 -0.6679 -0.3520
 2912WAT     H1 8947   3.515   0.425   3.354 -1.4135  1.9440  1.4724
 2912WAT     H2 8948   3.475   0.321   3.456 -0.1683 -0.0109  0.0578
 2913WAT      O 8949   0.406   2.588   1.975  0.4626  0.1811  0.5981
 2913WAT     H1 8950   0.359   2.508   1.951 -0.5290  0.9660 -0.1537
 2913WAT     H2 8951   0.466   2.604   1.903 -1.0598  1.4062 -0.4769
 2914WAT      O 8952   2.546   3.630   3.953  0.1709 -0.1118  0.3206
 2914WAT     H1 8953   2.563   3.619   4.046  1.6627  0.3066  0.1223
 2914WAT     H2 8954   2.540   3.541   3.919  1.3073 -0.3017  0.5603
 2915WAT      O 8955   1.808   5.108   4.984 -0.3338  0.2069 -0.4241
 2915WAT     H1 8956   1.803   5.016   5.012  0.9709  0.7353  1.8494
 2915WAT     H2 8957   1.725   5.146   5.012 -0.8068 -0.2082 -1.2144
 2916WAT      O 8958   1.751   2.564   0.211  0.1311  0.4009  0.0869
 2916WAT     H1 8959   1.684   2.551   0.144  0.2880  2.7653 -0.6402
 2916WAT     H2 8960   1.719   2.638   0.262  0.6295 -0.5667  1.8805
 2917WAT      O 8961   0.575   1.689   0.059  0.2069 -0.0684  0.4346
 2917WAT     H1 8962   0.542   1.617   0.004  1.3647  0.2750 -0.7730
 2917WAT     H2 8963   0.512   1.759   0.045 -0.1023 -0.3489  0.4027
 2918WAT      O 8964   0.712   4.007   2.371 -0.0650 -0.9016 -0.3570
 2918WAT     H1 8965   0.758   4.077   2.325  0.4110 -0.9209  0.0827
 2918WAT     H2 8966   0.694   4.043   2.458  1.6232 -1.8637  0.4476
 2919WAT      O 8967   4.958   3.667   2.892 -0.9454 -0.4669 -0.0511
 2919WAT     H1 8968   4.962   3.660   2.987 -0.6187  2.1801  0.1979
 2919WAT     H2 8969   4.893   3.735   2.875  1.6374  1.8151 -1.4903
 2920WAT      O 8970   1.879   3.571   1.606  0.2069 -0.3431  0.1237
 2920WAT     H1 8971   1.916   3.656   1.584  2.5777 -1.2484  0.3012
 2920WAT     H2 8972   1.856   3.532   1.522 -2.7823  1.1497  0.1130
 2921WAT      O 8973   1.109   3.860   1.224 -0.7689  0.3297 -0.8786
 2921WAT     H1 8974   1.024   3.900   1.203 -0.4533 -0.1395 -3.2491
 2921WAT     H2 8975   1.113   3.782   1.170  0.2442 -0.9424  0.9155
 2922WAT      O 8976   0.102   3.509   3.149 -0.0380 -0.1341 -0.2710
 2922WAT     H1 8977   0.012   3.535   3.168 -0.0206  0.2485 -0.6949
 2922WAT     H2 8978   0.093   3.435   3.089 -0.0680 -0.1308 -0.2706
 2923WAT      O 8979   2.596   3.065   4.292 -0.2607 -0.1012 -0.1885
 2923WAT     H1 8980   2.555   3.027   4.370 -1.0505 -2.2248 -1.5632
 2923WAT     H2 8981   2.683   3.026   4.289 -0.3777 -0.3405 -0.5720
 2924WAT      O 8982   0.057   3.879   2.355  0.0900 -0.3313  0.4926
 2924WAT     H1 8983   0.091   3.895   2.443 -0.6671 -0.3941  0.8096
 2924WAT     H2 8984   0.092   3.950   2.302  0.7203 -0.4108  0.8023
 2925WAT      O 8985   1.031   2.655   4.500  1.0184 -0.0285 -0.3212
 2925WAT     H1 8986   1.070   2.742   4.493  1.4047 -0.1192  0.5333
 2925WAT     H2 8987   1.106   2.596   4.509  0.7215 -0.2122  1.2640
 2926WAT      O 8988   1.955   4.460   4.834 -0.2966 -0.2773  0.2833
 2926WAT     H1 8989   2.018   4.466   4.762  0.8195 -1.1674  1.1533
 2926WAT     H2 8990   2.008   4.448   4.912 -1.5138  0.0450  1.2006
 2927WAT      O 8991   1.856   4.042   3.029  0.4815  0.1281  0.5386
 2927WAT     H1 8992   1.924   4.045   2.962  0.2518  1.3200  0.3179
 2927WAT     H2 8993   1.782   4.089   2.989 -0.3627 -0.8712  0.8849
 2928WAT      O 8994   2.113   3.441   0.921 -0.3438 -0.0231  0.3408
 2928WAT     H1 8995   2.159   3.499   0.981  2.6403 -1.7656 -0.0568
 2928WAT     H2 8996   2.113   3.356   0.964 -2.7628 -0.2571  0.0159
 2929WAT      O 8997   3.852   2.214   0.990  0.1403 -0.3713 -0.2788
 2929WAT     H1 8998   3.938   2.209   0.947  0.4022  0.8413  0.0825
 2929WAT     H2 8999   3.790   2.218   0.917  0.3522 -1.5754 -0.5441
 2930WAT      O 9000   4.065   4.324   2.657  0.2395  0.7087  0.2930
 2930WAT     H1 9001   4.078   4.344   2.564  0.8160 -2.5876 -0.4663
 2930WAT     H2 9002   4.153   4.319   2.692  0.1952 -1.1423  0.2094
 2931WAT      O 9003   2.880   1.050   1.066  0.1019 -0.5907 -0.1727
 2931WAT     H1 9004   2.910   1.028   0.978 -1.9902 -0.6405 -0.9439
 2931WAT     H2 9005   2.932   1.126   1.091  0.4311 -0.2979 -1.6558
 2932WAT      O 9006   0.859   3.759   3.495 -0.8556  0.2677 -0.4976
 2932WAT     H1 9007   0.770   3.770   3.460 -0.0567  0.9259 -2.4918
 2932WAT     H2 9008   0.898   3.691   3.439 -0.4037 -0.8062  1.0480
 2933WAT      O 9009   2.869   1.459   1.226  0.3491 -0.1442 -0.6486
 2933WAT     H1 9010   2.808   1.485   1.157 -0.6990  0.7224  0.5563
 2933WAT     H2 9011   2.836   1.376   1.258  1.8349 -1.4669 -2.2881
 2934WAT      O 9012   4.540   2.678   0.853  0.2902  0.0740  0.0216
 2934WAT     H1 9013   4.535   2.757   0.908 -0.3247  0.2811 -0.3117
 2934WAT     H2 9014   4.633   2.670   0.831  0.3425  0.8025 -0.0662
 2935WAT      O 9015   2.294   4.437   3.967 -0.1040 -0.2684 -0.3255
 2935WAT     H1 9016   2.291   4.350   3.926  0.9291 -0.2404 -0.4886
 2935WAT     H2 9017   2.291   4.419   4.061  0.4566 -0.5180 -0.3458
 2936WAT      O 9018   2.014   4.564   0.143  0.0322  0.3076 -0.2301
 2936WAT     H1 9019   1.943   4.621   0.113  1.0380  1.1837 -1.0629
 2936WAT     H2 9020   2.070   4.621   0.195  0.4502 -0.2025 -0.1081
 2937WAT      O 9021   2.809   4.674   1.747  0.9899  0.3363 -0.4127
 2937WAT     H1 9022   2.885   4.706   1.795  0.3313 -0.7579  1.4967
 2937WAT     H2 9023   2.751   4.750   1.741  0.8635  0.3925  1.0775
 2938WAT      O 9024   3.776   5.482   4.361 -0.1319  0.2975  0.4632
 2938WAT     H1 9025   3.782   5.466   4.267 -0.7538  0.5900  0.3734
 2938WAT     H2 9026   3.765   5.577   4.368  0.7747  0.3874  0.8717
 2939WAT      O 9027   4.780   3.785   2.321 -0.0756  0.3817 -0.3007
 2939WAT     H1 9028   4.720   3.857   2.302 -0.4840  0.1601  0.1226
 2939WAT     H2 9029   4.866   3.827   2.329 -0.0912  0.6386 -1.3812
 2940WAT      O 9030   2.335   3.102   3.151 -0.2521 -0.8518 -0.7501
 2940WAT     H1 9031   2.274   3.124   3.081 -1.1534 -0.3954  0.1684
 2940WAT     H2 9032   2.356   3.186   3.192  0.1096 -1.1377 -0.3395
 2941WAT      O 9033   2.690   3.353   5.397 -0.5659  0.0465  0.2908
 2941WAT     H1 9034   2.713   3.431   5.345  0.0784  0.0657  0.6016
 2941WAT     H2 9035   2.755   3.288   5.373 -1.4845 -0.6341 -0.4609
 2942WAT      O 9036   0.213   3.991   1.994  0.0393  0.1034 -0.4473
 2942WAT     H1 9037   0.215   4.048   2.071 -1.3055 -0.0903 -0.2382
 2942WAT     H2 9038   0.287   3.932   2.006 -0.4697 -0.2882  1.0119
 2943WAT      O 9039   2.963   3.511   0.935  0.1907 -0.0571 -0.0472
 2943WAT     H1 9040   2.892   3.450   0.914  0.2223  0.1735 -0.8683
 2943WAT     H2 9041   2.918   3.593   0.956  0.1046 -0.5408  1.8413
 2944WAT      O 9042   3.081   2.218   1.647 -0.1487  0.2133  0.5882
 2944WAT     H1 9043   3.113   2.308   1.646  0.3538  0.0453  1.1213
 2944WAT     H2 9044   3.149   2.169   1.693 -0.5293 -0.3985  0.5077
 2945WAT      O 9045   4.239   3.945   4.470 -0.1814 -0.2727 -0.4699
 2945WAT     H1 9046   4.288   3.922   4.549 -0.6823  2.8593  0.9131
 2945WAT     H2 9047   4.148   3.924   4.491 -0.3772  0.9684  0.0502
 2946WAT      O 9048   3.820   4.734   2.687 -0.2567  0.1617  0.2279
 2946WAT     H1 9049   3.726   4.728   2.700 -0.3727 -1.9658 -1.1073
 2946WAT     H2 9050   3.834   4.821   2.650 -2.2761 -0.7877 -3.2131
 2947WAT      O 9051   4.106   0.681   5.692 -0.8210 -0.2109 -0.2335
 2947WAT     H1 9052   4.068   0.767   5.678 -2.1677 -1.0143 -1.8242
 2947WAT     H2 9053   4.046   0.637   5.752  0.6012  0.3825  1.7191
 2948WAT      O 9054   2.783   4.098   3.553  0.7949  0.4622  0.0792
 2948WAT     H1 9055   2.720   4.166   3.530  1.2094  0.9789  0.4295
 2948WAT     H2 9056   2.814   4.064   3.469 -0.9347 -0.7588 -0.1207
 2949WAT      O 9057   1.739   4.651   3.140  0.1285  0.1888 -0.7500
 2949WAT     H1 9058   1.739   4.567   3.186 -1.8402  1.5441  2.0340
 2949WAT     H2 9059   1.751   4.716   3.209 -1.1573  2.3105 -2.3964
 2950WAT      O 9060   4.920   3.357   2.549  0.6308  0.3751 -0.0956
 2950WAT     H1 9061   4.969   3.403   2.618  0.7937  0.8171 -0.4984
 2950WAT     H2 9062   4.828   3.368   2.573  0.5856  1.9650 -0.7964
 2951WAT      O 9063   2.986   1.801   4.246 -0.3053  0.1397 -0.1262
 2951WAT     H1 9064   3.066   1.764   4.209  0.1858  0.4187  0.6241
 2951WAT     H2 9065   2.947   1.853   4.175 -0.7490 -1.3828 -1.0421
 2952WAT      O 9066   4.858   2.914   2.949  0.2494 -0.1970  0.3127
 2952WAT     H1 9067   4.931   2.864   2.911  0.9928  0.8217  0.3412
 2952WAT     H2 9068   4.784   2.854   2.946  0.9918 -1.1316 -0.0913
 2953WAT      O 9069   1.219   4.455   3.649 -0.0035 -0.0587 -0.2015
 2953WAT     H1 9070   1.201   4.366   3.679 -0.0550  0.7736  2.4546
 2953WAT     H2 9071   1.302   4.478   3.689  0.5776  0.7487 -1.7638
 2954WAT      O 9072   3.531   5.332   4.757 -0.2097 -0.4245 -0.4798
 2954WAT     H1 9073   3.538   5.344   4.851 -0.4819 -0.1413 -0.4951
 2954WAT     H2 9074   3.612   5.369   4.722 -0.3444 -0.0483 -0.3991
 2955WAT      O 9075   4.755   4.323   4.919 -0.5735 -0.1968 -0.2158
 2955WAT     H1 9076   4.667   4.298   4.950  0.5297 -2.0977  1.6458
 2955WAT     H2 9077   4.782   4.393   4.979 -0.7040  0.2134 -0.6311
 2956WAT      O 9078   4.159   1.569   5.387  0.0262  0.1226 -0.1685
 2956WAT     H1 9079   4.232   1.517   5.352 -0.4871 -0.4685 -0.3633
 2956WAT     H2 9080   4.087   1.507   5.397  0.0541  0.3384  1.6812
 2957WAT      O 9081   0.632   2.419   1.477  0.1784 -0.6681 -0.1689
 2957WAT     H1 9082   0.673   2.498   1.511 -1.2546 -0.3859  0.9501
 2957WAT     H2 9083   0.540   2.426   1.501 -0.2053 -2.1281 -1.0672
 2958WAT      O 9084   2.183   1.152   2.981 -0.2054 -0.5860 -0.4849
 2958WAT     H1 9085   2.094   1.137   3.014 -0.2940  0.2897 -0.3046
 2958WAT     H2 9086   2.209   1.236   3.019  0.3835 -0.4330 -1.2033
 2959WAT      O 9087   1.653   4.673   4.004  0.0443 -0.3793  0.5600
 2959WAT     H1 9088   1.691   4.742   3.950  0.2690  0.0728  1.2813
 2959WAT     H2 9089   1.713   4.664   4.078 -0.3919 -0.8101  0.8716
 2960WAT      O 9090   2.262   4.087   4.360  0.6818 -0.3261 -0.3097
 2960WAT     H1 9091   2.311   4.166   4.338 -0.1697  0.1985 -0.3986
 2960WAT     H2 9092   2.321   4.015   4.341  1.8278  0.3211  0.6831
 2961WAT      O 9093   3.587   4.320   0.564 -0.2278  0.1175  0.4622
 2961WAT     H1 9094   3.650   4.256   0.598 -0.8828 -0.7219  0.1248
 2961WAT     H2 9095   3.535   4.271   0.500 -0.3833  1.1281 -0.2162
 2962WAT      O 9096   4.131   3.592   4.612  0.2849  0.6870  0.0052
 2962WAT     H1 9097   4.159   3.523   4.552  2.1045  1.8132 -0.5175
 2962WAT     H2 9098   4.061   3.637   4.565 -2.4660 -1.9941  1.2160
 2963WAT      O 9099   2.241   5.024   5.090  0.1330 -0.2229  0.2277
 2963WAT     H1 9100   2.326   4.990   5.117 -0.3566 -0.9030  0.9838
 2963WAT     H2 9101   2.180   4.952   5.107 -0.4455 -0.1548 -1.3300
 2964WAT      O 9102   0.774   2.134   3.880  0.0984  0.6380  0.1774
 2964WAT     H1 9103   0.789   2.168   3.791 -0.2850  1.4594  0.4118
 2964WAT     H2 9104   0.707   2.192   3.916 -1.2739 -0.9306  0.2766
 2965WAT      O 9105   4.122   4.184   5.132  0.3769 -0.2522  0.1311
 2965WAT     H1 9106   4.078   4.161   5.050 -1.2192 -0.8530  1.1144
 2965WAT     H2 9107   4.210   4.148   5.123  0.1516 -0.5417 -1.1934
 2966WAT      O 9108   1.853   0.945   4.729 -0.2943  0.1452  0.1470
 2966WAT     H1 9109   1.783   0.891   4.765 -2.0029  0.1472 -2.8367
 2966WAT     H2 9110   1.914   0.883   4.688 -0.4963  0.3072 -0.4071
 2967WAT      O 9111   4.818   3.771   2.047 -0.1548 -0.4105  0.6432
 2967WAT     H1 9112   4.881   3.804   2.111 -0.5142 -1.7426  1.7175
 2967WAT     H2 9113   4.735   3.766   2.095 -0.4095 -1.5216  0.1158
 2968WAT      O 9114   1.059   3.073   4.557 -0.1759 -0.1191  0.0878
 2968WAT     H1 9115   1.080   3.128   4.632  0.5269  2.0191 -1.5949
 2968WAT     H2 9116   0.982   3.114   4.517  0.0770 -0.5936 -0.9378
 2969WAT      O 9117   2.798   2.300   1.038  0.3373 -0.2944 -0.0250
 2969WAT     H1 9118   2.775   2.392   1.050 -0.3859 -0.2818 -1.2403
 2969WAT     H2 9119   2.786   2.260   1.124  0.2294  0.6560  0.4130
 2970WAT      O 9120   4.835   2.067   3.409 -0.2142 -0.2299 -0.1731
 2970WAT     H1 9121   4.775   2.100   3.343  0.0560  1.8086  0.5022
 2970WAT     H2 9122   4.790   2.083   3.492  0.9089  0.6450  0.2990
 2971WAT      O 9123   4.430   3.877   2.425 -0.5069 -0.2980  0.1024
 2971WAT     H1 9124   4.360   3.941   2.441 -1.2293 -1.1183  0.3389
 2971WAT     H2 9125   4.503   3.929   2.393 -0.4286  0.9169  2.0365
 2972WAT      O 9126   2.189   3.466   3.694 -0.3406 -0.4104  0.0809
 2972WAT     H1 9127   2.213   3.385   3.741 -1.5802  0.0956  1.6710
 2972WAT     H2 9128   2.268   3.520   3.700  0.1152 -1.0492  0.0082
 2973WAT      O 9129   1.097   3.382   0.975 -0.0939  0.6416  0.4283
 2973WAT     H1 9130   1.170   3.430   1.013 -0.3363  0.5352  1.0399
 2973WAT     H2 9131   1.121   3.370   0.883  0.7177  0.4694  0.6613
 2974WAT      O 9132   1.499   1.949   2.955 -0.2167 -0.4475 -0.0207
 2974WAT     H1 9133   1.587   1.981   2.974 -0.0261 -0.9149 -0.1039
 2974WAT     H2 9134   1.468   2.005   2.884 -0.9829  1.3937  1.6681
 2975WAT      O 9135   1.880   2.754   4.467  0.0749 -0.0739  0.0060
 2975WAT     H1 9136   1.816   2.788   4.404 -0.0703  1.4364  0.9231
 2975WAT     H2 9137   1.962   2.795   4.442  0.3246 -0.6335 -0.0969
 2976WAT      O 9138   2.894   5.333   4.664  0.0591 -0.3003 -0.2525
 2976WAT     H1 9139   2.806   5.297   4.675  0.0905 -0.1496  0.5278
 2976WAT     H2 9140   2.888   5.389   4.587 -0.6614  0.1324  0.1118
 2977WAT      O 9141   0.221   4.005   3.892  0.0523 -0.1140  0.0333
 2977WAT     H1 9142   0.170   3.951   3.952 -0.9038  1.5841  0.8304
 2977WAT     H2 9143   0.310   3.968   3.895 -0.3847 -1.1176  1.1337
 2978WAT      O 9144   1.884   5.347   2.388  0.3103 -0.0180 -0.1048
 2978WAT     H1 9145   1.894   5.341   2.483 -0.8216  1.3654  0.1255
 2978WAT     H2 9146   1.840   5.265   2.364  1.0834 -0.6178  0.4783
 2979WAT      O 9147   2.759   3.461   1.412  0.2563 -0.1416  0.3074
 2979WAT     H1 9148   2.815   3.533   1.443 -1.1220  1.1838 -0.1524
 2979WAT     H2 9149   2.820   3.392   1.388  1.5697  0.2275  2.3145
 2980WAT      O 9150   0.227   2.044   2.746  0.6099  0.0633 -0.5654
 2980WAT     H1 9151   0.307   2.079   2.707  1.3074  0.2137  0.9580
 2980WAT     H2 9152   0.159   2.064   2.682  1.5366  1.2784 -1.2094
 2981WAT      O 9153   4.698   3.830   1.763  0.1852  0.4633  0.0837
 2981WAT     H1 9154   4.710   3.736   1.750  0.4111  0.4331  0.5009
 2981WAT     H2 9155   4.693   3.841   1.858  2.1641  1.1115  0.1516
 2982WAT      O 9156   2.201   0.420   4.831 -0.0687 -0.2288  0.6145
 2982WAT     H1 9157   2.205   0.369   4.750  0.3619 -1.5994  1.4592
 2982WAT     H2 9158   2.281   0.473   4.830  0.1569 -0.5642  0.3359
 2983WAT      O 9159   3.605   3.525   0.208  0.0858  0.2353 -0.6498
 2983WAT     H1 9160   3.662   3.543   0.133 -1.2902  2.0074 -1.3559
 2983WAT     H2 9161   3.516   3.534   0.174 -0.6047  2.4171  1.3926
 2984WAT      O 9162   2.354   3.627   2.846 -0.5172  0.4608  0.0615
 2984WAT     H1 9163   2.348   3.710   2.798 -1.1408  0.3117 -0.1242
 2984WAT     H2 9164   2.286   3.633   2.913 -1.6906 -0.5701 -1.0031
 2985WAT      O 9165   2.064   3.775   4.783  0.0501  0.7353 -0.2948
 2985WAT     H1 9166   2.056   3.827   4.863  0.9256  0.4807 -0.0322
 2985WAT     H2 9167   2.089   3.839   4.716  3.1533  0.4258  0.4336
 2986WAT      O 9168   1.810   4.121   3.283  0.4378 -0.0781 -0.0288
 2986WAT     H1 9169   1.844   4.093   3.198 -0.3546  0.3308 -0.4960
 2986WAT     H2 9170   1.835   4.213   3.289 -0.4714  0.2073 -0.3428
 2987WAT      O 9171   2.831   0.364   4.017  0.0279 -0.2206  0.2612
 2987WAT     H1 9172   2.739   0.357   4.042 -0.9732 -1.1885 -3.1761
 2987WAT     H2 9173   2.830   0.418   3.938  2.2539 -1.1351 -0.4632
 2988WAT      O 9174   3.642   5.610   1.275 -0.1558 -0.2451 -0.4157
 2988WAT     H1 9175   3.714   5.549   1.291  0.4507  0.3576 -0.7962
 2988WAT     H2 9176   3.679   5.677   1.218 -0.5282  1.0325  0.7943
 2989WAT      O 9177   4.591   2.364   1.212 -0.1721  0.0277  0.0177
 2989WAT     H1 9178   4.594   2.351   1.307  0.0387 -0.4574 -0.0490
 2989WAT     H2 9179   4.498   2.368   1.191 -0.3395 -2.4972 -0.0709
 2990WAT      O 9180   1.901   3.523   4.206 -0.3271  0.5199  0.0945
 2990WAT     H1 9181   1.822   3.469   4.214 -0.0851  0.2251  0.4818
 2990WAT     H2 9182   1.867   3.611   4.188 -0.7044  0.1001 -1.3668
 2991WAT      O 9183   3.429   5.279   2.417 -0.1743 -0.1553  0.1868
 2991WAT     H1 9184   3.421   5.373   2.402 -0.0259 -0.2069 -0.2143
 2991WAT     H2 9185   3.422   5.269   2.512  1.5621  0.4294  0.3965
 2992WAT      O 9186   1.575   4.414   4.124  0.1205 -0.4654 -0.2130
 2992WAT     H1 9187   1.579   4.341   4.062  0.6443 -2.0216  1.5668
 2992WAT     H2 9188   1.596   4.491   4.072  1.1220 -1.7824 -1.8480
 2993WAT      O 9189   3.827   3.804   3.602  0.1955  0.0055  0.8406
 2993WAT     H1 9190   3.884   3.822   3.677  0.7267  2.0542  0.0122
 2993WAT     H2 9191   3.751   3.861   3.614 -0.2238 -0.4227  0.3408
 2994WAT      O 9192   1.675   2.177   2.585  0.2217 -0.5602  0.5564
 2994WAT     H1 9193   1.692   2.085   2.601  3.2982 -0.2716 -0.4001
 2994WAT     H2 9194   1.762   2.217   2.579 -0.9890  2.3112  0.3338
 2995WAT      O 9195   1.419   1.934   2.480  0.2454  0.0715 -0.1841
 2995WAT     H1 9196   1.422   2.020   2.440  0.9587 -0.1985 -0.7256
 2995WAT     H2 9197   1.507   1.898   2.467  0.3863 -0.1842  1.2799
 2996WAT      O 9198   1.547   3.993   0.808 -0.2071  0.3579  0.2469
 2996WAT     H1 9199   1.512   4.082   0.818 -0.5468  0.1477  0.9573
 2996WAT     H2 9200   1.474   3.936   0.832  1.0400 -0.0933  3.3040
 2997WAT      O 9201   1.495   3.222   2.713  0.3568  0.2375  0.6263
 2997WAT     H1 9202   1.426   3.158   2.727 -0.7863  0.7026 -2.2244
 2997WAT     H2 9203   1.453   3.307   2.728  1.0382  0.4589  1.3794
 2998WAT      O 9204   2.123   3.027   2.634  0.1281 -0.1194  0.1290
 2998WAT     H1 9205   2.029   3.021   2.618  0.2788 -1.8504 -0.3621
 2998WAT     H2 9206   2.145   2.942   2.673  1.0706  1.1898  2.6430
 2999WAT      O 9207   0.761   2.055   1.018  0.5098  0.7776 -0.1726
 2999WAT     H1 9208   0.809   2.003   0.953 -0.2540 -2.2643  1.4664
 2999WAT     H2 9209   0.674   2.067   0.980  0.6314  0.6714 -0.4909
 3000WAT      O 9210   4.625   4.026   0.722  0.0011 -0.3099  0.0333
 3000WAT     H1 9211   4.581   4.002   0.804 -2.4101  0.8105 -0.8499
 3000WAT     H2 9212   4.667   3.945   0.693 -0.8543 -1.2591  1.3423
 3001WAT      O 9213   0.926   1.379   4.053 -0.0197 -0.2519 -0.0427
 3001WAT     H1 9214   0.862   1.395   3.984  1.2099 -0.0562 -1.1567
 3001WAT     H2 9215   0.937   1.464   4.096 -0.8980 -0.4077  0.5241
 3002WAT      O 9216   2.314   2.872   4.794  0.1914  0.3417  0.2601
 3002WAT     H1 9217   2.383   2.935   4.773 -0.1030  0.0558 -1.8486
 3002WAT     H2 9218   2.234   2.913   4.762 -0.0896 -0.7738 -0.5620
 3003WAT      O 9219   0.647   3.634   5.025 -0.1980  0.3419  0.1902
 3003WAT     H1 9220   0.624   3.725   5.007  1.2568  0.6558 -0.2299
 3003WAT     H2 9221   0.693   3.637   5.109  1.1131  0.2377 -0.4945
 3004WAT      O 9222   2.245   3.842   2.697  0.1260  0.6802 -0.1234
 3004WAT     H1 9223   2.204   3.927   2.688  1.1033  1.2452  0.5538
 3004WAT     H2 9224   2.205   3.788   2.628 -0.6395  1.6171 -0.4259
 3005WAT      O 9225   3.432   3.984   2.633 -0.5089  0.6385 -0.2388
 3005WAT     H1 9226   3.487   4.056   2.664 -1.4210  0.3855  2.1490
 3005WAT     H2 9227   3.473   3.906   2.669 -0.6898  0.1340 -1.0963
 3006WAT      O 9228   0.976   3.430   1.871  1.2010  0.2776 -0.2483
 3006WAT     H1 9229   0.941   3.516   1.848  0.8350  0.3338  0.4901
 3006WAT     H2 9230   1.066   3.431   1.836  0.4416  0.0574 -2.3261
 3007WAT      O 9231   3.982   1.651   2.192  0.7502  0.5104  0.3837
 3007WAT     H1 9232   4.005   1.734   2.234 -1.4376  1.5727 -0.3913
 3007WAT     H2 9233   3.945   1.598   2.262  0.3341  0.9358  0.4854
 3008WAT      O 9234   0.087   1.628   4.724 -0.5994  0.5388  0.4325
 3008WAT     H1 9235   0.143   1.683   4.669 -1.3559  0.6088 -0.2735
 3008WAT     H2 9236   0.149   1.574   4.774  0.0840  0.1939 -0.7584
 3009WAT      O 9237   4.568   3.460   3.895  0.3101  0.1051 -0.4815
 3009WAT     H1 9238   4.620   3.391   3.856  1.0095  1.4858 -2.1174
 3009WAT     H2 9239   4.632   3.525   3.925 -0.3117 -0.0106  1.2245
 3010WAT      O 9240   3.673   4.684   3.722  0.3203 -0.1915  0.5669
 3010WAT     H1 9241   3.683   4.656   3.813  0.0290  2.3827  1.4876
 3010WAT     H2 9242   3.751   4.650   3.678  1.3450 -0.0762  2.1932
 3011WAT      O 9243   1.167   3.616   2.948 -0.1916  0.2189 -0.2260
 3011WAT     H1 9244   1.242   3.600   3.005 -0.8584 -1.0108  0.3358
 3011WAT     H2 9245   1.091   3.589   3.000 -0.8715 -0.3281 -1.4641
 3012WAT      O 9246   3.495   4.616   2.913 -0.2912 -0.2109  0.2456
 3012WAT     H1 9247   3.504   4.689   2.851  0.6672  1.0287  1.7539
 3012WAT     H2 9248   3.452   4.655   2.989  2.5292 -0.4757  2.1194
 3013WAT      O 9249   4.548   4.266   4.404  0.3690 -0.0753  0.0942
 3013WAT     H1 9250   4.578   4.283   4.494 -1.5854 -1.1497  1.0271
 3013WAT     H2 9251   4.453   4.257   4.412  0.2390 -1.1231 -1.9316
 3014WAT      O 9252   2.436   4.742   5.052 -0.6716  0.2719 -0.0373
 3014WAT     H1 9253   2.491   4.692   4.993 -1.2561  0.8501 -1.1089
 3014WAT     H2 9254   2.491   4.759   5.129 -0.5113 -2.0834  0.4349
 3015WAT      O 9255   4.226   3.584   1.938 -0.2392  0.6222 -0.0569
 3015WAT     H1 9256   4.151   3.529   1.960 -0.1039  0.3093 -0.3582
 3015WAT     H2 9257   4.300   3.545   1.984 -0.0513  0.2583 -0.6548
 3016WAT      O 9258   2.252   4.279   2.392 -0.5890  0.0375 -0.4080
 3016WAT     H1 9259   2.177   4.283   2.451 -0.1194  0.2433  0.1810
 3016WAT     H2 9260   2.213   4.278   2.304 -1.2940 -0.3581 -0.1004
 3017WAT      O 9261   1.946   2.713   3.557  0.3191 -0.1673 -0.1389
 3017WAT     H1 9262   1.856   2.679   3.551  0.7743 -1.2273 -1.5018
 3017WAT     H2 9263   1.987   2.660   3.626 -0.2913  0.8742  1.0787
 3018WAT      O 9264   4.865   1.451   2.506 -0.5395 -0.4181  0.3304
 3018WAT     H1 9265   4.803   1.508   2.460 -2.6774 -1.9854  1.0682
 3018WAT     H2 9266   4.838   1.363   2.482  1.7054 -1.1917  0.4128
 3019WAT      O 9267   2.990   2.675   0.210 -0.4194 -0.3866  0.2381
 3019WAT     H1 9268   2.989   2.586   0.175 -0.3388 -1.2151  2.1665
 3019WAT     H2 9269   3.070   2.714   0.175  0.0172 -1.4032  0.0554
 3020WAT      O 9270   4.441   2.246   1.991  0.0849 -0.6269  0.4349
 3020WAT     H1 9271   4.473   2.286   2.072  0.9924 -0.4327 -0.0019
 3020WAT     H2 9272   4.520   2.232   1.939 -0.5301 -0.3226 -0.6089
 3021WAT      O 9273   1.838   1.762   2.313  0.3192 -0.3886 -0.4296
 3021WAT     H1 9274   1.807   1.672   2.318 -0.2179 -0.2624 -1.4033
 3021WAT     H2 9275   1.901   1.762   2.241 -0.6135  0.2693 -1.2711
 3022WAT      O 9276   2.067   0.083   2.691 -0.1111 -0.0228  0.1060
 3022WAT     H1 9277   2.122   0.010   2.721  0.4089  0.8589  1.3512
 3022WAT     H2 9278   2.019   0.111   2.769 -0.6091  0.7059 -0.4521
 3023WAT      O 9279   2.824   3.694   2.643  0.4961 -0.1849  0.3723
 3023WAT     H1 9280   2.851   3.607   2.674 -1.2497 -0.8414  0.1611
 3023WAT     H2 9281   2.740   3.709   2.686 -1.0962 -0.2797 -2.4631
 3024WAT      O 9282   1.327   3.137   5.819  0.2143  0.1819  0.0599
 3024WAT     H1 9283   1.327   3.173   5.730 -1.3265 -0.7721 -0.3610
 3024WAT     H2 9284   1.405   3.081   5.822 -0.1436 -0.4032 -0.9721
 3025WAT      O 9285   1.873   3.767   3.259  0.5001 -0.0170  0.5672
 3025WAT     H1 9286   1.806   3.727   3.203  0.4830 -0.2785  0.7709
 3025WAT     H2 9287   1.859   3.861   3.250  2.0826  0.0756 -1.8595
 3026WAT      O 9288   2.207   5.264   2.563 -0.0117 -0.1314  0.1330
 3026WAT     H1 9289   2.285   5.225   2.602  1.9442  0.9027 -2.4764
 3026WAT     H2 9290   2.204   5.353   2.598  0.3248  0.0057 -0.1783
 3027WAT      O 9291   2.453   0.593   5.357  0.2678  0.4153 -0.3964
 3027WAT     H1 9292   2.493   0.672   5.392  2.8135 -1.1156  0.4222
 3027WAT     H2 9293   2.397   0.561   5.428 -0.9906  1.5662 -0.8325
 3028WAT      O 9294   3.415   1.155   2.567 -0.0289 -0.0657 -0.3513
 3028WAT     H1 9295   3.380   1.066   2.571 -0.6276  0.2199  1.7138
 3028WAT     H2 9296   3.353   1.203   2.513 -0.4396 -0.5726 -0.3371
 3029WAT      O 9297   2.509   5.497   4.603 -0.1540 -0.4044 -0.0170
 3029WAT     H1 9298   2.600   5.479   4.582 -0.0720  1.7649 -2.0397
 3029WAT     H2 9299   2.462   5.417   4.579  0.9612 -0.7006 -1.3037
 3030WAT      O 9300   3.743   4.811   4.684  0.2487 -0.0102 -0.0484
 3030WAT     H1 9301   3.750   4.731   4.735  0.2045  1.3714  2.2531
 3030WAT     H2 9302   3.832   4.827   4.652  0.5723 -0.2048  0.7346
 3031WAT      O 9303   3.296   0.883   2.980 -0.2862  0.1949 -0.1072
 3031WAT     H1 9304   3.249   0.946   2.925  0.9247  0.7331 -0.5667
 3031WAT     H2 9305   3.261   0.797   2.953  0.4085  0.4240 -1.9008
 3032WAT      O 9306   0.447   2.615   5.635  0.3067 -0.9823  0.0606
 3032WAT     H1 9307   0.538   2.609   5.606  0.3192 -1.0585  0.1149
 3032WAT     H2 9308   0.398   2.634   5.555  0.2408 -2.0638 -0.1725
 3033WAT      O 9309   3.849   2.559   1.382 -0.4378 -0.1176  0.2314
 3033WAT     H1 9310   3.800   2.634   1.349  0.0481  0.1994  0.2105
 3033WAT     H2 9311   3.818   2.548   1.472  0.1168  0.6680  0.5304
 3034WAT      O 9312   1.377   4.014   2.353  0.0472 -0.7477  0.0105
 3034WAT     H1 9313   1.466   4.046   2.368  0.5133 -2.2418  0.5750
 3034WAT     H2 9314   1.365   3.945   2.418 -1.6829 -0.3116  0.2005
 3035WAT      O 9315   0.547   3.731   2.332  0.2436 -0.2314 -0.0467
 3035WAT     H1 9316   0.528   3.657   2.390 -0.1246  0.3423  0.5857
 3035WAT     H2 9317   0.637   3.755   2.353  0.3215 -0.4226 -0.1625
 3036WAT      O 9318   1.591   4.716   3.639  0.0673 -0.5652  0.3716
 3036WAT     H1 9319   1.571   4.634   3.685 -1.8599  0.1022  0.8208
 3036WAT     H2 9320   1.622   4.775   3.708 -0.7542 -0.2341  0.4745
 3037WAT      O 9321   1.333   3.631   4.569 -0.4140 -0.5596 -0.3304
 3037WAT     H1 9322   1.382   3.691   4.626  0.0511 -0.8099 -0.4630
 3037WAT     H2 9323   1.392   3.557   4.556 -0.8432 -0.8804 -0.4699
 3038WAT      O 9324   1.768   3.316   4.439 -0.3551  0.0132  0.1015
 3038WAT     H1 9325   1.736   3.368   4.512  0.3983 -0.3478  0.7046
 3038WAT     H2 9326   1.727   3.354   4.362  1.0154  2.2258  0.3714
 3039WAT      O 9327   3.051   2.991   4.138  0.1705  0.0083  0.7917
 3039WAT     H1 9328   3.108   3.035   4.075  0.5249 -0.2067  0.9654
 3039WAT     H2 9329   3.108   2.967   4.210 -0.4789  1.4811  1.8450
 3040WAT      O 9330   2.084   1.363   1.995 -0.1953 -0.5224  0.6863
 3040WAT     H1 9331   2.080   1.272   1.965  1.3241 -0.3804 -0.0673
 3040WAT     H2 9332   2.159   1.366   2.055  0.7307  0.4952 -0.4521
 3041WAT      O 9333   2.551   1.410   5.665  0.6898 -0.1196  0.5010
 3041WAT     H1 9334   2.542   1.388   5.758  0.7320 -2.0106  0.0979
 3041WAT     H2 9335   2.495   1.347   5.620  1.0214  0.4840 -0.7929
 3042WAT      O 9336   3.648   3.499   2.995  0.2730 -0.0586 -0.8258
 3042WAT     H1 9337   3.564   3.520   2.955 -2.2904 -1.5415  3.1971
 3042WAT     H2 9338   3.675   3.417   2.953 -2.3699 -1.6541  0.3800
 3043WAT      O 9339   0.046   2.939   3.918 -0.1607  0.5679 -0.2127
 3043WAT     H1 9340   0.080   2.959   3.831  2.5218 -0.0325  0.6229
 3043WAT     H2 9341   0.068   3.017   3.971 -2.1230  1.1030 -0.1052
 3044WAT      O 9342   1.624   2.765   4.952  0.6340  0.3551  0.0699
 3044WAT     H1 9343   1.609   2.859   4.955  1.2004  0.5542 -2.0426
 3044WAT     H2 9344   1.564   2.733   4.885 -0.9052 -1.1286  2.0290
 3045WAT      O 9345   1.264   3.155   4.354 -0.7925  0.4311  0.3654
 3045WAT     H1 9346   1.210   3.162   4.275 -0.6828 -0.8236  0.1693
 3045WAT     H2 9347   1.201   3.151   4.426 -0.8991  2.9697  0.5340
 3046WAT      O 9348   2.312   4.334   5.416  0.1954  0.0137  0.0830
 3046WAT     H1 9349   2.400   4.301   5.433  0.8206  1.7089  0.3237
 3046WAT     H2 9350   2.271   4.337   5.503  0.1502 -0.0984  0.0653
 3047WAT      O 9351   0.024   2.552   3.934 -0.6158 -0.4281  0.2951
 3047WAT     H1 9352   0.049   2.463   3.908  0.0018 -0.3278  0.5369
 3047WAT     H2 9353   0.106   2.601   3.933 -1.2397  0.7542 -2.2072
 3048WAT      O 9354   4.238   4.072   2.349  0.2710  0.1636 -0.4109
 3048WAT     H1 9355   4.259   4.070   2.256 -1.8295  0.4060 -0.9590
 3048WAT     H2 9356   4.174   4.143   2.357 -0.6184 -0.7375  0.9472
 3049WAT      O 9357   0.217   4.149   2.748 -0.1288 -0.2169 -0.4141
 3049WAT     H1 9358   0.301   4.132   2.789  0.6112 -2.3415 -2.6020
 3049WAT     H2 9359   0.153   4.104   2.803  0.5833 -1.2714 -0.4380
 3050WAT      O 9360   1.940   2.889   2.044 -0.4081 -0.1408 -0.6495
 3050WAT     H1 9361   1.957   2.843   1.962 -0.7501  0.9195 -1.3459
 3050WAT     H2 9362   1.891   2.827   2.097 -1.0298 -0.5177 -1.6296
 3051WAT      O 9363   1.695   1.454   5.250  0.0693 -0.2324  0.2478
 3051WAT     H1 9364   1.666   1.492   5.333  0.1470 -2.1204  1.1957
 3051WAT     H2 9365   1.689   1.359   5.264  1.3698 -0.6086 -1.4516
 3052WAT      O 9366   1.313   3.239   2.363  0.2323  0.2091  0.3596
 3052WAT     H1 9367   1.402   3.268   2.341  0.7341 -1.7964 -0.5510
 3052WAT     H2 9368   1.272   3.223   2.278  0.4122 -2.7120  0.7268
 3053WAT      O 9369   0.198   2.595   3.514  0.1603 -0.1871  0.3501
 3053WAT     H1 9370   0.136   2.569   3.445  0.3448 -2.3770  0.9157
 3053WAT     H2 9371   0.143   2.609   3.591  0.1531  0.1139  0.2895
 3054WAT      O 9372   1.077   2.852   3.411  0.4628 -0.3028 -0.0464
 3054WAT     H1 9373   1.005   2.915   3.405  1.1284  0.3811 -1.4020
 3054WAT     H2 9374   1.085   2.834   3.504 -2.6129 -1.7905  0.0416
 3055WAT      O 9375   0.257   4.006   5.262 -0.1297  0.1435  0.2455
 3055WAT     H1 9376   0.208   4.084   5.236  0.4269  0.4936  0.2268
 3055WAT     H2 9377   0.277   4.020   5.355  0.0650  0.0781  0.2149
 3056WAT      O 9378   2.257   3.749   5.640  0.7827 -0.2269 -0.3345
 3056WAT     H1 9379   2.327   3.688   5.616  0.4909 -1.1674  1.0749
 3056WAT     H2 9380   2.181   3.693   5.653  0.6868  0.3213  1.7263
 3057WAT      O 9381   2.653   4.803   0.618 -0.0405 -0.2276  0.6148
 3057WAT     H1 9382   2.735   4.768   0.582  0.4496  1.9277 -0.6286
 3057WAT     H2 9383   2.677   4.891   0.649 -1.8329  0.4031  0.3490
 3058WAT      O 9384   1.343   4.139   3.281  0.0388 -0.7515 -0.5369
 3058WAT     H1 9385   1.434   4.157   3.306  0.5654 -0.0471 -2.7222
 3058WAT     H2 9386   1.329   4.047   3.305  0.4504 -0.2126  2.0975
 3059WAT      O 9387   3.973   4.125   1.795 -0.0163 -0.1051 -0.5656
 3059WAT     H1 9388   3.985   4.067   1.719  0.2921  0.9668 -1.3572
 3059WAT     H2 9389   4.037   4.195   1.781 -1.0735  0.9621 -0.1590
 3060WAT      O 9390   2.362   2.446   1.572  0.4730 -0.3766  0.3367
 3060WAT     H1 9391   2.351   2.416   1.481 -1.0604 -0.7982  0.6400
 3060WAT     H2 9392   2.443   2.404   1.601  0.5677 -0.8638 -0.5842
 3061WAT      O 9393   2.333   5.452   1.343 -0.1499  0.4958  0.4070
 3061WAT     H1 9394   2.296   5.533   1.308  0.4347  0.6652  0.1797
 3061WAT     H2 9395   2.270   5.385   1.318 -0.8466  0.9243  0.9403
 3062WAT      O 9396   1.644   3.882   3.695  0.1335  0.7656  0.0098
 3062WAT     H1 9397   1.707   3.953   3.708  0.9137  0.3903 -1.4584
 3062WAT     H2 9398   1.685   3.826   3.629 -0.3142 -1.2525  1.3490
 3063WAT      O 9399   4.398   3.085   2.860 -0.0829  0.0435 -0.3215
 3063WAT     H1 9400   4.340   3.024   2.905 -0.3502 -0.4182 -1.2477
 3063WAT     H2 9401   4.483   3.041   2.858 -0.2786 -0.3154 -0.9997
 3064WAT      O 9402   3.808   5.487   4.788  0.5769 -0.8740  0.1843
 3064WAT     H1 9403   3.854   5.403   4.781  1.9860 -0.0585 -0.9204
 3064WAT     H2 9404   3.857   5.546   4.731  0.0070  0.8849  1.4197
 3065WAT      O 9405   3.308   5.154   0.005  0.5066  0.1297 -0.2627
 3065WAT     H1 9406   3.306   5.199   0.089  2.3218  0.4332 -0.3438
 3065WAT     H2 9407   3.222   5.111  -0.002  0.8839 -1.2199  2.4449
 3066WAT      O 9408   0.511   2.268   0.885 -0.3546  0.1374  0.4681
 3066WAT     H1 9409   0.425   2.297   0.853 -0.2939 -1.1372 -0.9937
 3066WAT     H2 9410   0.493   2.185   0.929  0.2607 -0.8227 -1.0172
 3067WAT      O 9411   0.351   1.650   3.141 -0.2525 -0.5748 -0.5577
 3067WAT     H1 9412   0.296   1.583   3.099  0.3684 -0.8371 -0.9710
 3067WAT     H2 9413   0.362   1.620   3.231 -1.2106 -0.2506 -0.3197
 3068WAT      O 9414   2.847   2.341   3.083 -0.0391  0.4186 -0.2449
 3068WAT     H1 9415   2.941   2.347   3.063  0.2300 -0.4727  0.6906
 3068WAT     H2 9416   2.836   2.392   3.162 -0.2532  0.1272 -0.0851
 3069WAT      O 9417   0.738   3.681   5.557  0.1531  0.4919 -0.1204
 3069WAT     H1 9418   0.762   3.702   5.647 -1.6692  0.4898  0.4104
 3069WAT     H2 9419   0.758   3.588   5.548 -0.4899  0.2715  0.5957
 3070WAT      O 9420   0.750   3.269   1.948  0.8199 -0.5352  0.9984
 3070WAT     H1 9421   0.726   3.255   1.856 -1.3374 -1.0927  1.5849
 3070WAT     H2 9422   0.803   3.348   1.946  1.1051 -0.7135 -0.7645
 3071WAT      O 9423   2.354   0.103   2.045 -0.2054 -0.0353  0.3227
 3071WAT     H1 9424   2.445   0.073   2.044 -0.5466 -1.1126  0.6877
 3071WAT     H2 9425   2.331   0.107   2.137  0.0584  2.1561  0.3498
 3072WAT      O 9426   0.319   3.229   1.860  0.0965 -0.6348 -0.6800
 3072WAT     H1 9427   0.238   3.281   1.860  0.7328  0.6346  2.8183
 3072WAT     H2 9428   0.388   3.293   1.876  1.6812 -1.9149 -2.0631
 3073WAT      O 9429   3.742   4.144   1.972  0.4048 -0.4131 -0.0232
 3073WAT     H1 9430   3.808   4.155   1.904  0.6041 -0.7676  0.1095
 3073WAT     H2 9431   3.773   4.197   2.045  0.6386 -0.7218  0.1044
 3074WAT      O 9432   0.280   3.421   2.491 -0.0426  0.6004 -0.4584
 3074WAT     H1 9433   0.213   3.445   2.555  0.1617  0.0523 -0.0309
 3074WAT     H2 9434   0.234   3.362   2.430  0.1189 -0.0153  0.0070
 3075WAT      O 9435   4.315   4.405   2.724  0.2321  0.2499  0.3402
 3075WAT     H1 9436   4.333   4.350   2.800  1.2537 -0.0809 -0.1275
 3075WAT     H2 9437   4.396   4.405   2.674 -0.0635  1.3759 -0.1862
 3076WAT      O 9438   4.655   3.891   0.400  0.0076 -0.0826  0.5394
 3076WAT     H1 9439   4.598   3.960   0.367 -1.4403 -0.2677  2.4370
 3076WAT     H2 9440   4.741   3.932   0.406 -0.7200  1.4569  1.1917
 3077WAT      O 9441   4.667   2.252   3.300  0.3554  0.6622 -0.1415
 3077WAT     H1 9442   4.573   2.264   3.284 -0.0997  1.0156  2.3932
 3077WAT     H2 9443   4.682   2.294   3.385  3.0089  1.3589 -0.8917
 3078WAT      O 9444   3.561   5.307   2.817 -0.2180  0.6829 -0.7965
 3078WAT     H1 9445   3.487   5.347   2.771 -0.7973  1.0380  0.3995
 3078WAT     H2 9446   3.562   5.217   2.786 -1.2540  0.6335 -0.7324
 3079WAT      O 9447   3.698   5.626   0.471  0.7776 -0.1602 -0.1203
 3079WAT     H1 9448   3.611   5.666   0.464  0.7477 -0.1691  0.2067
 3079WAT     H2 9449   3.716   5.622   0.565  2.1880  2.1267 -0.2309
 3080WAT      O 9450   1.389   1.293   2.430 -0.1576 -0.2025  0.5487
 3080WAT     H1 9451   1.351   1.267   2.514 -0.1791 -1.9196  0.0441
 3080WAT     H2 9452   1.424   1.380   2.446 -0.7399 -0.2248  2.1555
 3081WAT      O 9453   2.998   4.209   0.705 -0.4612 -0.1027  0.6636
 3081WAT     H1 9454   3.038   4.173   0.785  0.3745 -1.1092 -0.1774
 3081WAT     H2 9455   2.920   4.155   0.691  0.3115 -1.0456 -0.1109
 3082WAT      O 9456   2.182   4.795   5.476  0.0964 -0.2874  0.3048
 3082WAT     H1 9457   2.186   4.731   5.406  1.0596 -0.3026  0.3675
 3082WAT     H2 9458   2.191   4.744   5.556  0.5725 -0.1043  0.3687
 3083WAT      O 9459   3.298   4.867   1.673  0.0810  0.7135 -0.4226
 3083WAT     H1 9460   3.379   4.917   1.663  1.4403 -1.2064  0.4703
 3083WAT     H2 9461   3.229   4.934   1.675  1.7165  2.4827 -0.1020
 3084WAT      O 9462   3.394   2.644   3.147  0.3449 -0.6393 -0.2172
 3084WAT     H1 9463   3.372   2.580   3.080  1.1211 -0.4085 -0.7081
 3084WAT     H2 9464   3.340   2.720   3.127  0.8173 -0.4474 -0.7981
 3085WAT      O 9465   1.879   4.594   3.718  0.2922 -0.0712  0.3625
 3085WAT     H1 9466   1.887   4.524   3.782  0.1610 -0.6898 -0.2850
 3085WAT     H2 9467   1.936   4.664   3.751 -0.0468 -0.2293  1.3277
 3086WAT      O 9468   1.189   3.749   0.035 -0.3196 -0.1366  0.2080
 3086WAT     H1 9469   1.256   3.798  -0.013 -2.3562  0.3398 -2.3776
 3086WAT     H2 9470   1.210   3.657   0.019  0.0189  0.0005 -0.1479
 3087WAT      O 9471   2.498   5.431   3.298 -0.0524 -0.0677 -0.0889
 3087WAT     H1 9472   2.472   5.373   3.369  0.7945  0.1603  0.4233
 3087WAT     H2 9473   2.528   5.511   3.342 -1.6407  0.9736 -0.7851
 3088WAT      O 9474   1.670   5.494   0.136  0.4791 -0.6631  0.2331
 3088WAT     H1 9475   1.580   5.521   0.117  0.7621  0.4401  0.4086
 3088WAT     H2 9476   1.714   5.574   0.163  1.9065 -0.8722 -1.3010
 3089WAT      O 9477   2.465   4.974   5.273 -0.2783 -0.0459  0.3877
 3089WAT     H1 9478   2.492   4.896   5.323 -1.0274 -1.2148 -0.9334
 3089WAT     H2 9479   2.405   5.020   5.332 -1.2492 -1.4555  0.5517
 3090WAT      O 9480   1.409   3.554   4.866  0.2973  0.2303 -0.2286
 3090WAT     H1 9481   1.499   3.587   4.867  0.2858  0.2665  0.5931
 3090WAT     H2 9482   1.416   3.466   4.828  0.9073 -0.3311  1.0863
 3091WAT      O 9483   4.251   3.996   0.160 -0.0989 -0.8072  0.0464
 3091WAT     H1 9484   4.199   4.002   0.239 -0.5015 -0.4735 -0.2432
 3091WAT     H2 9485   4.319   4.062   0.171 -0.2285 -0.6760  0.0575
 3092WAT      O 9486   1.084   2.896   4.918  0.0957  0.1226  0.1793
 3092WAT     H1 9487   1.146   2.851   4.974 -0.2969  1.0416  1.3970
 3092WAT     H2 9488   1.018   2.830   4.897  0.0954 -0.1621  1.0424
 3093WAT      O 9489   0.991   2.523   4.119  0.6424 -0.2715  0.3202
 3093WAT     H1 9490   1.033   2.453   4.069  0.8339 -0.1258  0.2795
 3093WAT     H2 9491   0.983   2.487   4.207  4.7234  1.1826  1.5053
 3094WAT      O 9492   0.567   2.325   2.608 -0.0192 -0.7967  0.0522
 3094WAT     H1 9493   0.657   2.326   2.577  0.4780 -2.3111  1.3041
 3094WAT     H2 9494   0.574   2.316   2.703 -1.4920 -0.0596  0.2627
 3095WAT      O 9495   3.922   2.309   1.814 -0.5423 -0.0469  0.2999
 3095WAT     H1 9496   4.009   2.318   1.774  0.3662  1.5429  2.4480
 3095WAT     H2 9497   3.863   2.295   1.740  1.5247 -1.3111 -1.2188
 3096WAT      O 9498   3.151   1.711   3.123  0.0336 -0.4033 -0.1699
 3096WAT     H1 9499   3.095   1.638   3.150 -1.9448  0.9434 -0.3524
 3096WAT     H2 9500   3.155   1.704   3.028  1.5405 -1.4017 -0.0542
 3097WAT      O 9501   1.349   2.441   1.859  0.0321 -0.0382 -0.1495
 3097WAT     H1 9502   1.301   2.463   1.939  1.2408 -0.5092  0.7540
 3097WAT     H2 9503   1.310   2.495   1.791  0.5929  2.3184  1.2822
 3098WAT      O 9504   0.074   3.315   1.959  0.1258  0.1453  0.1374
 3098WAT     H1 9505   0.008   3.384   1.950 -0.5789 -0.5245  0.0924
 3098WAT     H2 9506   0.048   3.249   1.895  0.5906 -0.3244  0.4277
 3099WAT      O 9507   1.794   4.672   3.453 -0.0010 -0.3284 -0.0852
 3099WAT     H1 9508   1.769   4.583   3.430 -0.7589  0.1155 -1.0065
 3099WAT     H2 9509   1.761   4.684   3.542  0.2234 -1.0001  0.0953
 3100WAT      O 9510   0.523   1.653   2.403  0.4076  0.1353 -0.4028
 3100WAT     H1 9511   0.458   1.644   2.333  1.9093  0.2799 -1.8764
 3100WAT     H2 9512   0.527   1.567   2.444 -0.7297  0.1381 -0.2448
 3101WAT      O 9513   4.498   1.111   0.598  0.7075 -0.1641 -0.0349
 3101WAT     H1 9514   4.591   1.087   0.590  1.1384 -0.5190  3.9214
 3101WAT     H2 9515   4.461   1.044   0.656 -1.5283  1.0680  0.0716
 3102WAT      O 9516   2.195   4.051   1.465  0.3559  0.2639  1.0118
 3102WAT     H1 9517   2.125   4.013   1.412 -0.2382  0.1967  1.8211
 3102WAT     H2 9518   2.150   4.099   1.534  1.1119  0.8013  1.1524
 3103WAT      O 9519   3.239   4.598   1.621 -0.4052  0.0552  0.2808
 3103WAT     H1 9520   3.257   4.543   1.697  0.6637 -1.0877 -0.7439
 3103WAT     H2 9521   3.265   4.686   1.648  0.0061 -0.3387  1.2272
 3104WAT      O 9522   4.620   1.725   1.566  0.2158  0.2146 -0.1804
 3104WAT     H1 9523   4.556   1.760   1.505  0.0450  0.2824  0.0341
 3104WAT     H2 9524   4.612   1.630   1.558  1.9477  0.1546 -2.0977
 3105WAT      O 9525   1.490   2.623   2.133  0.1359  0.0340  0.7604
 3105WAT     H1 9526   1.552   2.564   2.175  0.7014  0.3672  0.4111
 3105WAT     H2 9527   1.408   2.574   2.129 -0.0229  0.0861  2.4965
 3106WAT      O 9528   4.018   0.494   1.916  0.2219  0.0978 -0.4910
 3106WAT     H1 9529   4.023   0.537   2.001 -0.4723  0.7488 -0.7640
 3106WAT     H2 9530   3.927   0.463   1.910  0.3172 -0.1163 -0.9173
 3107WAT      O 9531   3.772   4.809   0.818 -0.0162 -0.0135  0.2230
 3107WAT     H1 9532   3.715   4.782   0.890 -0.3416  1.5500  0.6003
 3107WAT     H2 9533   3.813   4.890   0.849  0.9763 -0.0949 -0.7834
 3108WAT      O 9534   4.412   2.243   3.218 -0.3167 -0.2811 -0.0884
 3108WAT     H1 9535   4.450   2.225   3.132 -1.2933 -0.5515 -0.4891
 3108WAT     H2 9536   4.340   2.304   3.200  0.3716  0.8123  0.7377
 3109WAT      O 9537   2.389   4.372   1.058 -0.2236  0.4892 -0.9794
 3109WAT     H1 9538   2.480   4.346   1.047 -0.4566 -1.4513  0.9995
 3109WAT     H2 9539   2.350   4.362   0.971  1.1841  0.3336 -1.6106
 3110WAT      O 9540   0.903   2.401   2.813  0.3874 -0.6352  0.2753
 3110WAT     H1 9541   0.963   2.474   2.801  0.5575 -0.8049  0.0895
 3110WAT     H2 9542   0.880   2.374   2.724  0.3425 -0.8186  0.3426
 3111WAT      O 9543   2.203   4.106   2.680 -0.3193  0.1780 -0.3836
 3111WAT     H1 9544   2.296   4.130   2.672 -0.1332  0.1422  1.2863
 3111WAT     H2 9545   2.158   4.189   2.690 -0.0405  0.1010  2.1668
 3112WAT      O 9546   1.998   4.419   3.526  0.1393  0.0484 -0.3574
 3112WAT     H1 9547   1.949   4.498   3.549  0.3425 -0.0335  0.3785
 3112WAT     H2 9548   2.086   4.450   3.507 -0.1464  0.1769 -1.5363
 3113WAT      O 9549   2.193   4.725   1.635  0.2472  0.1372  0.6617
 3113WAT     H1 9550   2.172   4.648   1.582  0.6679  0.3586  0.1668
 3113WAT     H2 9551   2.154   4.706   1.720  0.4425 -0.6747  0.5815
 3114WAT      O 9552   4.691   2.496   5.346  0.3974  0.5082 -0.3302
 3114WAT     H1 9553   4.771   2.532   5.307  0.6671 -1.2012 -1.4232
 3114WAT     H2 9554   4.620   2.541   5.300  0.7285 -0.3165 -1.7131
 3115WAT      O 9555   2.390   3.259   1.632  0.1379 -0.1495 -0.0051
 3115WAT     H1 9556   2.482   3.263   1.660  0.3652  1.2405 -0.8168
 3115WAT     H2 9557   2.342   3.300   1.704  0.2004 -0.5069  0.2427
 3116WAT      O 9558   4.469   4.110   1.461  0.1968 -0.2156 -0.0741
 3116WAT     H1 9559   4.418   4.065   1.529 -0.8098  1.4756  0.3707
 3116WAT     H2 9560   4.551   4.063   1.457  0.2302 -0.4764  2.2472
 3117WAT      O 9561   1.421   3.193   0.429  0.4156 -0.2544 -0.1559
 3117WAT     H1 9562   1.501   3.181   0.481  0.7813 -0.3876 -0.7424
 3117WAT     H2 9563   1.451   3.229   0.346 -0.0159 -1.2761 -0.7765
 3118WAT      O 9564   1.705   4.221   0.258 -0.1453  0.1495  0.0441
 3118WAT     H1 9565   1.776   4.186   0.313 -0.7567  0.2677  0.9358
 3118WAT     H2 9566   1.669   4.144   0.214 -0.1685 -0.0712  0.4411
 3119WAT      O 9567   2.223   2.776   2.646  0.1139  0.1369  0.2512
 3119WAT     H1 9568   2.307   2.790   2.689  0.7706 -1.3011 -0.4880
 3119WAT     H2 9569   2.239   2.800   2.554 -0.6174  0.9474  0.3205
 3120WAT      O 9570   3.397   3.421   2.233  0.7974 -0.5501  0.0901
 3120WAT     H1 9571   3.329   3.366   2.272  0.7812  0.3371  1.3498
 3120WAT     H2 9572   3.443   3.460   2.307  2.0513 -0.3428 -0.7522
 3121WAT      O 9573   2.755   4.051   5.225  0.2623 -0.5056 -0.0788
 3121WAT     H1 9574   2.833   4.051   5.170 -0.1474 -1.0054 -0.6842
 3121WAT     H2 9575   2.785   4.019   5.310  0.4432 -2.3149 -0.7683
 3122WAT      O 9576   3.921   3.084   2.179 -0.0774 -0.4135 -0.5364
 3122WAT     H1 9577   4.012   3.057   2.162  0.1754 -0.5486  0.8986
 3122WAT     H2 9578   3.928   3.162   2.233 -0.8242 -0.1868 -0.7510
 3123WAT      O 9579   3.008   4.920   5.044 -0.1090 -0.0804  0.0708
 3123WAT     H1 9580   3.086   4.952   4.998 -1.6858  2.0560 -1.3748
 3123WAT     H2 9581   2.952   4.998   5.051 -2.6932 -1.7868 -0.2507
 3124WAT      O 9582   3.825   4.350   3.629  0.3686 -0.0086  0.3529
 3124WAT     H1 9583   3.849   4.442   3.634 -1.3463  0.4116  1.9903
 3124WAT     H2 9584   3.755   4.346   3.565  1.3304 -0.4277 -0.7095
 3125WAT      O 9585   1.082   2.030   3.684 -0.1863  0.3948  0.2709
 3125WAT     H1 9586   1.170   2.047   3.650  0.4265 -0.8954  1.1419
 3125WAT     H2 9587   1.037   1.986   3.611  0.0526  0.5907  0.0019
 3126WAT      O 9588   0.714   2.846   0.289  0.3746 -0.5243 -0.4369
 3126WAT     H1 9589   0.636   2.859   0.236  0.5040  0.4837 -0.4083
 3126WAT     H2 9590   0.770   2.790   0.236  0.6633  0.7658 -1.5712
 3127WAT      O 9591   0.660   2.297   1.869 -0.8279 -0.0478 -0.4539
 3127WAT     H1 9592   0.732   2.355   1.844 -0.6112  1.3383  2.9314
 3127WAT     H2 9593   0.581   2.346   1.844 -0.6240  0.2818 -0.4634
 3128WAT      O 9594   1.026   2.776   1.602  0.0455  0.5153  0.3563
 3128WAT     H1 9595   1.060   2.792   1.514 -0.4318  0.2757  0.1228
 3128WAT     H2 9596   1.010   2.864   1.637  2.3230  0.7060  1.0688
 3129WAT      O 9597   4.031   1.506   2.618  0.2182 -0.3191 -0.5659
 3129WAT     H1 9598   4.127   1.511   2.608  0.1978  0.1633 -0.5297
 3129WAT     H2 9599   4.019   1.469   2.706  0.3736 -1.5208 -1.0328
 3130WAT      O 9600   3.537   4.837   2.425 -0.3416 -0.3226  1.0127
 3130WAT     H1 9601   3.587   4.852   2.345  0.9394  2.3174  2.1930
 3130WAT     H2 9602   3.447   4.861   2.403  0.1426  1.1247  0.5138
 3131WAT      O 9603   2.343   3.857   3.223 -0.6714  0.1858 -0.0366
 3131WAT     H1 9604   2.261   3.841   3.175 -0.1777  0.2634 -0.9278
 3131WAT     H2 9605   2.330   3.815   3.308 -1.7269  0.4014 -0.0799
 3132WAT      O 9606   1.093   2.980   2.928  0.2024  0.1955 -0.1005
 3132WAT     H1 9607   1.130   2.943   3.008  0.0723  0.7694  0.2260
 3132WAT     H2 9608   1.012   2.930   2.914  2.3063 -3.0366 -2.3353
 3133WAT      O 9609   3.432   2.526   3.915 -0.7435  0.5223  0.2089
 3133WAT     H1 9610   3.427   2.503   3.823 -0.7308 -2.1340  0.7838
 3133WAT     H2 9611   3.521   2.559   3.928 -0.1924 -0.6930 -0.4097
 3134WAT      O 9612   2.682   4.289   1.556 -0.3271 -0.0754  1.0932
 3134WAT     H1 9613   2.690   4.265   1.648 -1.6333  0.6890  1.4471
 3134WAT     H2 9614   2.589   4.310   1.546 -0.0752  0.4782 -0.2417
 3135WAT      O 9615   4.864   2.468   2.579 -0.3989 -0.1191 -0.4123
 3135WAT     H1 9616   4.869   2.448   2.672 -2.0193 -0.6799 -0.4249
 3135WAT     H2 9617   4.956   2.477   2.552  0.0752  1.4781  1.5068
 3136WAT      O 9618   1.823   4.463   1.182 -1.0596  0.6395  0.7578
 3136WAT     H1 9619   1.739   4.497   1.149 -0.5553 -0.5916 -2.0983
 3136WAT     H2 9620   1.841   4.387   1.127  2.1615  1.1234  0.9803
 3137WAT      O 9621   3.432   4.591   1.420  0.2827  0.6481  0.5903
 3137WAT     H1 9622   3.418   4.498   1.402  1.4962  0.6708 -0.5518
 3137WAT     H2 9623   3.366   4.612   1.486 -0.9143 -0.6836 -0.1285
 3138WAT      O 9624   3.198   0.410   3.620 -0.2692 -0.4145 -0.3292
 3138WAT     H1 9625   3.243   0.418   3.704  1.2602  2.1340 -1.3043
 3138WAT     H2 9626   3.267   0.398   3.555 -0.8966  2.9000 -1.7882
 3139WAT      O 9627   2.403   5.619   0.526  0.4352  0.0901  0.4967
 3139WAT     H1 9628   2.321   5.570   0.526 -0.7158  1.8913 -0.7292
 3139WAT     H2 9629   2.439   5.604   0.438 -0.7241  2.5162 -0.5065
 3140WAT      O 9630   3.480   3.043   3.274 -0.5393 -0.2026 -0.0791
 3140WAT     H1 9631   3.503   3.076   3.188  1.6555 -1.1944  0.0690
 3140WAT     H2 9632   3.413   2.977   3.258  0.6074 -1.1391 -1.1693
 3141WAT      O 9633   1.449   2.085   2.697 -0.3517  0.7854 -0.3125
 3141WAT     H1 9634   1.452   2.011   2.636 -0.8772  0.8133 -0.3803
 3141WAT     H2 9635   1.507   2.150   2.659  0.6125  0.1761  0.0644
 3142WAT      O 9636   1.044   3.639   2.217  0.0837 -0.3749  0.7196
 3142WAT     H1 9637   1.030   3.713   2.275  0.8248 -0.5358  1.1052
 3142WAT     H2 9638   1.095   3.674   2.144 -1.3574 -0.0326 -0.1598
 3143WAT      O 9639   2.092   1.879   3.313 -0.6082  0.1189  0.0530
 3143WAT     H1 9640   2.004   1.876   3.351 -0.6675 -0.5023 -0.1192
 3143WAT     H2 9641   2.094   1.961   3.264 -0.6646  0.7297  1.0581
 3144WAT      O 9642   1.473   2.814   3.003  0.0400 -0.0557 -0.1596
 3144WAT     H1 9643   1.406   2.768   2.952  0.0580 -1.6262  1.1328
 3144WAT     H2 9644   1.556   2.788   2.962  0.0820 -1.6475  0.8304
 3145WAT      O 9645   2.243   0.370   0.701 -0.0441 -0.0930  0.0605
 3145WAT     H1 9646   2.287   0.438   0.750  0.1626 -0.0841 -0.1374
 3145WAT     H2 9647   2.256   0.290   0.753 -0.1094 -0.0211  0.1868
 3146WAT      O 9648   2.451   3.603   1.396  0.0110 -0.3715 -0.0115
 3146WAT     H1 9649   2.518   3.578   1.333  0.3847  1.3330 -0.3481
 3146WAT     H2 9650   2.493   3.594   1.481  0.7529  0.7872 -0.2250
 3147WAT      O 9651   1.960   4.632   2.962 -0.3084  0.2061 -0.0172
 3147WAT     H1 9652   1.942   4.539   2.950  1.1631 -0.0507 -0.3670
 3147WAT     H2 9653   1.893   4.662   3.024  0.0486 -1.3780  1.1757
 3148WAT      O 9654   0.661   3.705   2.746 -0.3663 -0.2156 -0.4847
 3148WAT     H1 9655   0.614   3.632   2.706 -1.4787 -0.6779  1.5487
 3148WAT     H2 9656   0.753   3.687   2.728 -0.6519 -1.8961 -0.3915
 3149WAT      O 9657   3.487   0.007   2.083  0.5452  0.6691 -0.0823
 3149WAT     H1 9658   3.485   0.008   1.987 -2.2452  3.6665 -0.1408
 3149WAT     H2 9659   3.544   0.080   2.107 -0.2362  1.0933  0.5048
 3150WAT      O 9660   1.679   4.039   1.776 -0.1736  0.4833  0.3588
 3150WAT     H1 9661   1.655   3.972   1.839 -0.4778  1.1780  1.0023
 3150WAT     H2 9662   1.605   4.100   1.777  0.7188  1.6063  0.8959
 3151WAT      O 9663   2.935   0.494   1.556  0.0180 -0.4902  0.2583
 3151WAT     H1 9664   2.917   0.541   1.638  1.7274 -1.0832  1.0149
 3151WAT     H2 9665   3.010   0.439   1.576  0.2116 -0.9671 -1.6174
 3152WAT      O 9666   2.506   4.803   5.790 -0.1852  0.0054  0.2294
 3152WAT     H1 9667   2.529   4.830   5.879  2.3965  0.0552 -0.3732
 3152WAT     H2 9668   2.410   4.801   5.790 -0.2821  0.5754  2.8186
 3153WAT      O 9669   0.690   3.736   4.746  0.0129 -0.3405  0.0985
 3153WAT     H1 9670   0.777   3.742   4.785  1.0478 -0.3069 -2.0793
 3153WAT     H2 9671   0.665   3.644   4.758 -0.2117 -0.0983  1.7628
 3154WAT      O 9672   2.936   2.830   2.240 -0.0522 -0.0165 -0.0344
 3154WAT     H1 9673   2.884   2.883   2.180 -0.2737  0.0515  0.2141
 3154WAT     H2 9674   2.915   2.740   2.216 -0.3733  0.0112  0.1380
 3155WAT      O 9675   1.843   2.184   0.234 -0.0226 -0.0525  0.4776
 3155WAT     H1 9676   1.919   2.233   0.265 -0.3369  1.6422 -1.2305
 3155WAT     H2 9677   1.879   2.101   0.204  0.8681  0.0019  1.3171
 3156WAT      O 9678   0.446   1.908   4.007 -0.6684  0.7299 -0.2920
 3156WAT     H1 9679   0.438   2.002   3.997 -1.1133  0.6337 -0.8720
 3156WAT     H2 9680   0.365   1.881   4.050 -1.0667  0.4676 -1.1840
 3157WAT      O 9681   0.556   3.932   1.715  0.1750 -0.6484  0.2127
 3157WAT     H1 9682   0.586   3.926   1.805  0.7919 -0.7968 -0.0005
 3157WAT     H2 9683   0.619   3.990   1.672 -0.9086  0.5673  0.2016
 3158WAT      O 9684   3.030   4.722   2.457 -0.1187  0.1949 -0.2223
 3158WAT     H1 9685   2.959   4.780   2.431 -1.2401 -0.8608  0.3950
 3158WAT     H2 9686   3.034   4.731   2.553  1.0539  0.7469 -0.2957
 3159WAT      O 9687   3.428   4.149   2.947 -0.0901 -0.4637  0.1379
 3159WAT     H1 9688   3.473   4.065   2.934 -1.1509 -0.9857 -0.3542
 3159WAT     H2 9689   3.426   4.188   2.860 -0.9438 -0.6495  0.0640
 3160WAT      O 9690   3.311   3.716   1.180  0.3326  0.9037 -0.0592
 3160WAT     H1 9691   3.359   3.714   1.097 -0.6022  0.4928 -0.6145
 3160WAT     H2 9692   3.306   3.809   1.202  0.5601  1.0231 -0.4912
 3161WAT      O 9693   2.635   0.562   2.129  0.0459 -0.0810 -0.7083
 3161WAT     H1 9694   2.640   0.503   2.053 -0.2428 -1.6311  0.4378
 3161WAT     H2 9695   2.550   0.542   2.169  1.3573 -1.4016  1.6455
 3162WAT      O 9696   4.209   3.204   5.316  0.1575  0.3744 -0.1302
 3162WAT     H1 9697   4.131   3.241   5.276 -0.4283 -1.0212 -0.3392
 3162WAT     H2 9698   4.177   3.129   5.365  1.6341 -1.8683 -2.3572
 3163WAT      O 9699   2.593   5.313   1.755  0.5242  0.0937  0.5451
 3163WAT     H1 9700   2.658   5.333   1.687 -1.2684  2.5528 -0.6087
 3163WAT     H2 9701   2.554   5.231   1.726  1.6231 -0.2943  0.0876
 3164WAT      O 9702   0.461   2.712   0.495  0.4187 -0.0167  0.3641
 3164WAT     H1 9703   0.368   2.729   0.511  0.3680 -1.0801  1.3512
 3164WAT     H2 9704   0.502   2.798   0.499 -0.7068  0.6765 -1.6102
 3165WAT      O 9705   4.173   4.855   5.083  0.0003  0.0551 -0.2772
 3165WAT     H1 9706   4.182   4.772   5.036  1.6376 -0.8040  1.4048
 3165WAT     H2 9707   4.248   4.857   5.142 -1.9902  0.9548  2.4345
 3166WAT      O 9708   4.946   4.308   3.306 -0.0783  0.1577 -0.1586
 3166WAT     H1 9709   4.852   4.299   3.325 -0.2753  0.2376 -1.0493
 3166WAT     H2 9710   4.988   4.246   3.365 -0.6350  0.5555  0.6884
 3167WAT      O 9711   3.996   3.047   3.049  0.1802  0.4174  0.7291
 3167WAT     H1 9712   3.992   3.036   2.954 -0.3417  1.2296  0.6462
 3167WAT     H2 9713   3.968   3.138   3.064  0.0730  0.2432  1.6723
 3168WAT      O 9714   2.583   3.911   3.888  0.3742  0.6562 -0.1221
 3168WAT     H1 9715   2.658   3.971   3.884 -0.2591  1.4101 -1.7208
 3168WAT     H2 9716   2.623   3.825   3.899  1.3093  1.3057  2.1094
 3169WAT      O 9717   2.349   3.745   4.590  0.3381 -0.1850 -0.1261
 3169WAT     H1 9718   2.303   3.757   4.507  0.6393 -0.2959 -0.3087
 3169WAT     H2 9719   2.317   3.816   4.645  2.1567  1.5496 -1.2035
 3170WAT      O 9720   1.499   2.148   2.351 -0.2762 -0.0703  0.2553
 3170WAT     H1 9721   1.559   2.162   2.278  0.7322  1.2172  1.2949
 3170WAT     H2 9722   1.550   2.170   2.429 -1.4917 -0.8993  1.3290
 3171WAT      O 9723   4.032   2.178   1.200  0.2015  0.4687  0.4567
 3171WAT     H1 9724   4.006   2.246   1.262 -1.3744  0.6536 -0.3463
 3171WAT     H2 9725   3.967   2.184   1.130  0.5822 -1.2408 -0.0882
 3172WAT      O 9726   3.842   3.504   4.699 -0.1413  0.1286 -0.2855
 3172WAT     H1 9727   3.828   3.595   4.671 -0.0685  0.4585  0.7162
 3172WAT     H2 9728   3.904   3.469   4.635  0.5014  1.0511 -0.1951
 3173WAT      O 9729   3.763   0.656   4.519  0.3487  0.1742  0.3473
 3173WAT     H1 9730   3.736   0.733   4.571  1.0964  0.8132 -0.1998
 3173WAT     H2 9731   3.856   0.646   4.537  0.3447 -0.3564  0.0866
 3174WAT      O 9732   0.474   1.433   4.091  0.1345 -0.2955 -0.1283
 3174WAT     H1 9733   0.389   1.431   4.046  0.0797  0.1026 -0.0473
 3174WAT     H2 9734   0.453   1.410   4.182  0.4108 -2.3204 -0.5308
 3175WAT      O 9735   0.168   2.917   4.383  0.5029 -0.6659 -0.3249
 3175WAT     H1 9736   0.117   2.995   4.360  1.3474  0.3753  1.1507
 3175WAT     H2 9737   0.249   2.926   4.333  0.7240 -0.4317  0.0719
 3176WAT      O 9738   3.842   4.594   4.869 -0.2430  0.3769 -0.1812
 3176WAT     H1 9739   3.856   4.512   4.916  0.3567  1.4393  1.5935
 3176WAT     H2 9740   3.889   4.582   4.786  1.6640 -0.3346  0.9336
 3177WAT      O 9741   3.007   2.941   5.566  0.4727 -0.3328  0.2481
 3177WAT     H1 9742   2.950   2.957   5.641  0.1238  0.6663 -0.2147
 3177WAT     H2 9743   2.947   2.920   5.494  0.7838 -0.8939  0.1473
 3178WAT      O 9744   4.584   1.895   3.013 -0.3558  0.2744 -0.2638
 3178WAT     H1 9745   4.607   1.984   2.987  0.9715  0.3690  1.1287
 3178WAT     H2 9746   4.663   1.860   3.052 -0.7925 -1.6240 -0.9770
 3179WAT      O 9747   2.141   1.420   0.859 -0.0584 -0.0249  0.2667
 3179WAT     H1 9748   2.072   1.487   0.854 -1.0813 -1.0955 -0.5215
 3179WAT     H2 9749   2.151   1.390   0.768 -0.7802 -2.0647  0.8134
 3180WAT      O 9750   2.112   3.548   1.741 -0.1753  0.0360  0.0582
 3180WAT     H1 9751   2.018   3.544   1.724 -0.1271  1.8107 -0.9429
 3180WAT     H2 9752   2.153   3.523   1.658  0.1678  1.3279 -0.1964
 3181WAT      O 9753   4.046   4.812   4.435 -0.1634  1.0392  0.0190
 3181WAT     H1 9754   3.979   4.864   4.391  0.9272  0.1705 -2.9206
 3181WAT     H2 9755   4.081   4.870   4.503 -3.8521  1.4591  1.7905
 3182WAT      O 9756   1.344   2.535   4.484 -0.0694  0.2682 -0.0718
 3182WAT     H1 9757   1.402   2.497   4.550  0.0318  1.4455  0.5413
 3182WAT     H2 9758   1.359   2.482   4.406  3.1916  1.6249 -0.5008
 3183WAT      O 9759   2.737   2.945   2.060 -0.3221  0.4335  0.2806
 3183WAT     H1 9760   2.706   2.992   2.136 -0.6444  1.1506 -0.2866
 3183WAT     H2 9761   2.674   2.966   1.990  0.0197 -0.1228 -0.2120
 3184WAT      O 9762   1.795   0.502   4.674  0.0162  0.3009 -0.6363
 3184WAT     H1 9763   1.727   0.476   4.612  0.5190  1.5778 -1.7613
 3184WAT     H2 9764   1.869   0.445   4.652  0.2540  0.8706 -1.3625
 3185WAT      O 9765   1.640   2.741   4.125 -0.3925 -0.4195  0.5719
 3185WAT     H1 9766   1.669   2.802   4.193  0.2599 -0.2051  0.1147
 3185WAT     H2 9767   1.546   2.756   4.118 -0.3578  0.0241  0.9686
 3186WAT      O 9768   2.976   2.193   5.722  0.6963  0.1557 -0.2933
 3186WAT     H1 9769   2.941   2.159   5.805 -0.6891 -1.0886 -1.3307
 3186WAT     H2 9770   3.069   2.208   5.740  0.0043  2.3204  2.1968
 3187WAT      O 9771   4.228   1.820   5.797 -0.4138  0.2707  0.0235
 3187WAT     H1 9772   4.248   1.831   5.704 -0.4384  0.8735  0.0872
 3187WAT     H2 9773   4.297   1.762   5.829 -0.5243 -0.1039 -0.4131
 3188WAT      O 9774   0.987   4.061   5.622  0.2896  0.4883 -0.4346
 3188WAT     H1 9775   0.942   4.041   5.540 -0.1772  0.5132 -0.1840
 3188WAT     H2 9776   0.968   4.154   5.638 -2.2467 -0.2277  1.3003
 3189WAT      O 9777   3.926   3.360   2.537  0.2092  0.0475 -0.4394
 3189WAT     H1 9778   3.969   3.394   2.616  0.6368 -1.7845  0.1623
 3189WAT     H2 9779   3.882   3.280   2.566  0.1748 -0.5394 -2.0041
 3190WAT      O 9780   0.831   2.703   1.217 -0.5445 -0.6131  0.0421
 3190WAT     H1 9781   0.769   2.678   1.148  1.0624 -0.6238 -1.4673
 3190WAT     H2 9782   0.840   2.798   1.207 -2.5255 -0.0939  2.2345
 3191WAT      O 9783   2.182   2.689   0.214 -0.6034  0.4092 -0.2088
 3191WAT     H1 9784   2.246   2.618   0.217  0.2374  1.1702  1.2545
 3191WAT     H2 9785   2.231   2.765   0.247 -2.4447  0.8610  1.6783
 3192WAT      O 9786   1.992   1.747   4.189  0.2997 -0.0741  0.0853
 3192WAT     H1 9787   2.081   1.765   4.157 -0.9452  3.5662 -1.8762
 3192WAT     H2 9788   1.970   1.662   4.152  1.9957  0.2205 -1.8120
 3193WAT      O 9789   0.257   3.418   0.139 -0.1431  0.0034  0.5648
 3193WAT     H1 9790   0.256   3.327   0.171 -0.8229 -0.0925  0.2854
 3193WAT     H2 9791   0.201   3.465   0.200 -2.1470 -0.3479 -0.9297
 3194WAT      O 9792   4.934   2.280   2.157 -0.2250 -0.2146 -0.3883
 3194WAT     H1 9793   4.946   2.218   2.085  1.3300 -0.4483  0.0478
 3194WAT     H2 9794   4.993   2.249   2.225 -0.5232  0.9142  0.4022
 3195WAT      O 9795   3.366   3.968   3.538  0.4523  0.2523  0.4695
 3195WAT     H1 9796   3.299   4.003   3.479  0.5419  0.4217  0.4652
 3195WAT     H2 9797   3.329   3.980   3.625  0.1885 -0.2844  0.4331
 3196WAT      O 9798   4.275   2.044   3.709  0.3479 -0.0174 -0.5481
 3196WAT     H1 9799   4.241   1.955   3.700 -0.1050  0.2392 -1.6068
 3196WAT     H2 9800   4.320   2.060   3.626 -0.0631  0.9351 -0.5993
 3197WAT      O 9801   3.888   2.234   5.051  0.0018  0.1750 -0.5642
 3197WAT     H1 9802   3.916   2.160   4.997 -2.7193  0.3461 -2.4235
 3197WAT     H2 9803   3.858   2.194   5.132  1.2068 -0.4235 -0.3926
 3198WAT      O 9804   4.332   2.448   4.789  0.6096  0.3470 -0.5267
 3198WAT     H1 9805   4.336   2.421   4.881 -0.3408 -1.3841 -0.9486
 3198WAT     H2 9806   4.244   2.485   4.779  0.3931 -0.2576 -0.9197
 3199WAT      O 9807   3.549   3.330   0.953  0.3441  0.2799 -0.2649
 3199WAT     H1 9808   3.509   3.311   1.038 -1.0380  2.7985 -0.2539
 3199WAT     H2 9809   3.521   3.259   0.896  1.1995 -1.3923  1.3066
 3200WAT      O 9810   3.552   2.188   1.386  0.1286  0.4062  0.1694
 3200WAT     H1 9811   3.603   2.245   1.329  2.1817 -0.7481  0.7839
 3200WAT     H2 9812   3.559   2.101   1.347 -0.1860 -0.0307  1.0553
 3201WAT      O 9813   2.281   2.400   0.046  0.1517  0.3307 -0.2681
 3201WAT     H1 9814   2.365   2.427   0.082  0.2265  1.4077 -1.2164
 3201WAT     H2 9815   2.261   2.465  -0.021 -2.0219  0.7930  0.7485
 3202WAT      O 9816   4.620   2.653   4.499 -0.0516  0.3815 -0.4261
 3202WAT     H1 9817   4.714   2.667   4.497  0.2428 -1.2078  0.1471
 3202WAT     H2 9818   4.607   2.588   4.569 -1.2466 -1.4370 -2.2209
 3203WAT      O 9819   1.275   2.364   5.452 -0.7296  0.2979  0.5764
 3203WAT     H1 9820   1.264   2.273   5.479  0.0124  0.1919  0.5570
 3203WAT     H2 9821   1.241   2.367   5.363 -0.1975 -0.1051  0.3567
 3204WAT      O 9822   3.360   4.721   4.997  0.2791 -0.1600 -0.0562
 3204WAT     H1 9823   3.431   4.675   5.041  2.3537  1.7377 -1.2095
 3204WAT     H2 9824   3.350   4.802   5.048 -0.5405 -0.0681 -0.3567
 3205WAT      O 9825   4.614   3.077   5.472  0.1561  0.0614 -0.2587
 3205WAT     H1 9826   4.682   3.116   5.527  1.4227 -0.8948 -1.0789
 3205WAT     H2 9827   4.572   3.152   5.429  0.3863  0.6970  0.6043
 3206WAT      O 9828   1.722   2.055   4.699 -0.4110 -0.0112  0.4429
 3206WAT     H1 9829   1.777   2.106   4.640 -2.5741  1.4512 -0.4171
 3206WAT     H2 9830   1.657   2.014   4.643 -0.9682 -0.6846  1.5406
 3207WAT      O 9831   1.138   3.473   0.007  0.1583  0.0857  0.2070
 3207WAT     H1 9832   1.170   3.425  -0.069 -3.3899 -0.2970 -1.2260
 3207WAT     H2 9833   1.154   3.415   0.081 -0.0651 -1.3871 -0.8709
 3208WAT      O 9834   3.662   3.301   4.753 -0.4021  0.8101  0.1328
 3208WAT     H1 9835   3.700   3.386   4.733  0.3141  0.6218  0.6157
 3208WAT     H2 9836   3.692   3.243   4.683 -1.8059  1.1779 -0.8147
 3209WAT      O 9837   3.913   3.211   5.221  0.5383  0.2368 -0.1549
 3209WAT     H1 9838   3.882   3.135   5.270 -1.3579 -1.1727 -3.2043
 3209WAT     H2 9839   3.842   3.274   5.228  0.3516  0.1109 -0.8406
 3210WAT      O 9840   1.597   0.965   5.100 -0.0367 -0.5738  0.2476
 3210WAT     H1 9841   1.678   1.007   5.073 -1.0980  1.5082  0.0634
 3210WAT     H2 9842   1.564   0.924   5.020 -0.6350  1.2308 -0.5061
 3211WAT      O 9843   0.370   1.787   0.611  0.3834 -0.3755 -0.2079
 3211WAT     H1 9844   0.354   1.697   0.581 -0.1939 -0.3968  0.1431
 3211WAT     H2 9845   0.307   1.800   0.682  1.4566 -0.1828  0.7347
 3212WAT      O 9846   1.147   4.063   0.351  0.1779 -0.0994  0.3918
 3212WAT     H1 9847   1.206   4.122   0.397  1.1419 -0.4319 -0.3814
 3212WAT     H2 9848   1.066   4.064   0.403  0.7254  0.6598  1.2550
 3213WAT      O 9849   3.593   2.543   5.188 -0.2070 -0.0386  0.0884
 3213WAT     H1 9850   3.573   2.634   5.165  3.2363  0.5096 -1.4076
 3213WAT     H2 9851   3.542   2.491   5.126 -0.3153  0.9980 -0.7246
 3214WAT      O 9852   4.756   3.587   4.306  0.3247  0.3997 -0.8376
 3214WAT     H1 9853   4.756   3.672   4.262 -0.9945  1.5476  1.2537
 3214WAT     H2 9854   4.754   3.607   4.399 -1.4911 -1.8914 -0.2699
 3215WAT      O 9855   0.076   3.692   4.650  0.4225 -0.0485  0.6795
 3215WAT     H1 9856   0.083   3.600   4.625 -0.9135 -0.1333  0.5370
 3215WAT     H2 9857   0.135   3.702   4.724 -0.0326 -1.2250  1.2200
 3216WAT      O 9858   1.337   3.859   0.936 -0.7209  0.3036 -0.0642
 3216WAT     H1 9859   1.365   3.821   1.019  2.4327  1.6384 -0.3767
 3216WAT     H2 9860   1.245   3.833   0.927 -0.2421 -2.6592  2.2014
 3217WAT      O 9861   4.256   1.365   2.298  0.0963 -0.5245  0.2327
 3217WAT     H1 9862   4.201   1.287   2.308  3.3273 -3.0979 -0.3339
 3217WAT     H2 9863   4.260   1.403   2.386  0.4855 -2.5854  1.1697
 3218WAT      O 9864   0.493   3.221   0.710  0.4220  0.2889  0.4544
 3218WAT     H1 9865   0.585   3.244   0.695  0.5067  0.7271  1.5154
 3218WAT     H2 9866   0.444   3.295   0.676  0.4352 -0.0576 -0.3452
 3219WAT      O 9867   4.617   3.431   0.390  0.4486 -0.0888 -0.9091
 3219WAT     H1 9868   4.564   3.419   0.469  1.8701 -0.3171  0.0563
 3219WAT     H2 9869   4.582   3.511   0.350  0.2344  0.5140  0.4213
 3220WAT      O 9870   4.867   4.083   0.390 -0.1214  0.2904 -0.7324
 3220WAT     H1 9871   4.917   4.037   0.457 -0.7767  0.4185 -0.1362
 3220WAT     H2 9872   4.826   4.156   0.437 -1.7241 -0.4269 -0.9505
 3221WAT      O 9873   0.750   2.292   5.566  0.4280 -0.1496  0.7532
 3221WAT     H1 9874   0.764   2.199   5.583 -1.1678 -0.8945 -1.5438
 3221WAT     H2 9875   0.706   2.324   5.644  0.6056 -1.4267  1.4084
 3222WAT      O 9876   4.819   3.544   1.010  0.0496  0.0850 -0.1758
 3222WAT     H1 9877   4.789   3.565   1.098  0.1154  0.6083 -0.2768
 3222WAT     H2 9878   4.738   3.529   0.960  0.0277 -0.8552  0.1243
 3223WAT      O 9879   0.149   3.378   4.581  0.7079  0.2967 -0.0285
 3223WAT     H1 9880   0.244   3.387   4.570  0.7255  0.1628  0.0118
 3223WAT     H2 9881   0.127   3.299   4.531  0.8153 -0.4391  1.0319
 3224WAT      O 9882   2.444   2.621   5.221  0.1515  0.0542  0.0577
 3224WAT     H1 9883   2.410   2.540   5.183  1.3887  0.0057 -0.9892
 3224WAT     H2 9884   2.400   2.691   5.172 -1.9608  0.1242  1.8528
 3225WAT      O 9885   1.717   2.678   0.977 -0.9653 -0.0063 -0.6815
 3225WAT     H1 9886   1.686   2.603   1.029 -1.6576  1.2017  0.7429
 3225WAT     H2 9887   1.643   2.739   0.978 -0.4176  0.7079 -1.8332
 3226WAT      O 9888   1.641   3.859   2.041 -0.1064 -0.7875  0.1468
 3226WAT     H1 9889   1.672   3.838   2.129 -0.2496  1.4940  0.8075
 3226WAT     H2 9890   1.679   3.792   1.985  1.2716 -1.3843  1.7259
 3227WAT      O 9891   1.249   3.671   5.391  0.0622 -0.1686 -0.0433
 3227WAT     H1 9892   1.210   3.592   5.352  0.5888 -0.0982 -0.7383
 3227WAT     H2 9893   1.177   3.713   5.437 -0.0386 -1.5118  1.0932
 3228WAT      O 9894   1.292   2.789   5.555 -0.0572  0.2602  0.6123
 3228WAT     H1 9895   1.333   2.839   5.626  0.3121  0.3983  0.3054
 3228WAT     H2 9896   1.208   2.760   5.592 -0.5311  1.5505  0.6348
 3229WAT      O 9897   1.226   3.124   5.315  0.1018  0.3318 -0.2376
 3229WAT     H1 9898   1.238   3.034   5.284 -1.0232  0.0095  0.1812
 3229WAT     H2 9899   1.186   3.169   5.241 -2.6213 -0.4477  0.6401
 3230WAT      O 9900   2.488   2.701   4.717  0.2781 -0.8106  0.6434
 3230WAT     H1 9901   2.555   2.714   4.784  0.2955 -0.3828  0.5463
 3230WAT     H2 9902   2.412   2.750   4.749  1.0833  1.5285 -0.8322
 3231WAT      O 9903   3.001   2.049   5.020  0.1725 -0.8983  0.2915
 3231WAT     H1 9904   2.983   2.137   5.051  2.9865 -0.4500  0.8887
 3231WAT     H2 9905   2.965   1.992   5.088  0.0101 -0.1444  0.8516
 3232WAT      O 9906   0.464   2.446   2.227  0.2188  0.3787  0.1766
 3232WAT     H1 9907   0.520   2.508   2.274 -0.3964  2.3651 -1.5688
 3232WAT     H2 9908   0.444   2.489   2.144 -0.4477 -2.0844 -1.0588
 3233WAT      O 9909   2.719   2.486   5.728  0.3794 -0.2366 -0.0555
 3233WAT     H1 9910   2.782   2.558   5.732  1.6559 -1.1428 -2.1920
 3233WAT     H2 9911   2.715   2.463   5.636 -1.4489 -1.6845  0.3352
 3234WAT      O 9912   3.953   2.992   4.459 -0.1112  0.3502 -0.3810
 3234WAT     H1 9913   3.954   2.914   4.515  0.9747  0.2571 -0.4992
 3234WAT     H2 9914   3.960   2.958   4.370  0.3576  0.5683 -0.4326
 3235WAT      O 9915   3.722   2.658   3.872 -0.5372 -0.4474  0.1967
 3235WAT     H1 9916   3.703   2.674   3.779  0.1073  0.2706  0.1788
 3235WAT     H2 9917   3.710   2.743   3.913  3.3614  0.3460  0.0416
 3236WAT      O 9918   4.349   4.007   5.134  0.0219 -0.4662 -0.2637
 3236WAT     H1 9919   4.438   3.998   5.101 -0.2405  0.3918 -1.2357
 3236WAT     H2 9920   4.305   3.927   5.106  0.2069 -0.4222 -0.6887
 3237WAT      O 9921   3.044   3.449   5.391 -0.2188  0.4446  0.3988
 3237WAT     H1 9922   3.059   3.357   5.411  1.5466  1.0276  2.1323
 3237WAT     H2 9923   3.117   3.475   5.336  0.0481  1.1137  1.0469
 3238WAT      O 9924   2.539   5.005   4.299  0.6649  0.0698  0.0338
 3238WAT     H1 9925   2.500   5.024   4.214 -1.1635 -0.8730  0.5954
 3238WAT     H2 9926   2.527   4.910   4.310  0.6866  0.1983  1.4038
 3239WAT      O 9927   2.914   3.680   1.524  0.2949  0.1853 -0.0725
 3239WAT     H1 9928   2.865   3.747   1.572 -1.3081 -1.3301  0.5095
 3239WAT     H2 9929   2.958   3.729   1.454  0.9547  2.1423  1.6064
 3240WAT      O 9930   0.522   2.624   3.870  0.3680 -0.4030  0.3538
 3240WAT     H1 9931   0.486   2.620   3.781 -1.2023  0.1505  0.9307
 3240WAT     H2 9932   0.605   2.577   3.864  1.4421  1.5136 -1.9447
 3241WAT      O 9933   1.800   3.087   4.878  0.0930 -0.6627  0.0230
 3241WAT     H1 9934   1.825   3.166   4.829 -0.8076 -0.5419 -0.2562
 3241WAT     H2 9935   1.770   3.026   4.811 -0.0743 -0.9101  0.3238
 3242WAT      O 9936   3.804   5.085   5.026  0.4374  0.1892 -0.4764
 3242WAT     H1 9937   3.815   5.091   5.121 -1.5159  3.0127 -0.3232
 3242WAT     H2 9938   3.766   4.998   5.012 -0.2056  0.1213  1.4439
 3243WAT      O 9939   2.195   4.732   0.269 -0.2071 -0.5274 -0.3204
 3243WAT     H1 9940   2.224   4.781   0.345  0.1383 -0.3782 -0.5450
 3243WAT     H2 9941   2.273   4.724   0.214 -0.8058  0.7737 -1.4226
 3244WAT      O 9942   1.715   1.486   2.353  0.2048  0.3651  0.1258
 3244WAT     H1 9943   1.780   1.425   2.390 -0.8430 -1.4935 -0.9640
 3244WAT     H2 9944   1.694   1.450   2.268 -0.6438  2.1876 -0.4875
 3245WAT      O 9945   1.913   2.164   5.496 -0.0268  0.8176 -0.1883
 3245WAT     H1 9946   1.959   2.110   5.432 -1.4993 -0.8169  0.0540
 3245WAT     H2 9947   1.969   2.163   5.574 -0.9764 -2.2445  0.5620
 3246WAT      O 9948   1.626   1.321   3.361  0.5946  0.5400  0.1022
 3246WAT     H1 9949   1.589   1.242   3.400  1.6009  0.2181  0.4367
 3246WAT     H2 9950   1.551   1.381   3.352  0.4431  1.2034  3.8619
 3247WAT      O 9951   2.903   3.787   2.897 -0.3087 -0.5003  0.3613
 3247WAT     H1 9952   2.993   3.805   2.869 -0.3478 -0.2262  0.4094
 3247WAT     H2 9953   2.850   3.809   2.820 -0.5268  1.3798  0.9960
 3248WAT      O 9954   2.834   3.155   4.097 -0.4814  0.0168  0.0957
 3248WAT     H1 9955   2.902   3.100   4.136  0.6330  0.3653 -1.2986
 3248WAT     H2 9956   2.831   3.232   4.154 -1.8031 -1.2450  1.8536
 3249WAT      O 9957   1.378   4.191   0.447 -0.1495 -0.1425  0.0803
 3249WAT     H1 9958   1.409   4.182   0.356 -0.8153  0.0238 -0.1723
 3249WAT     H2 9959   1.418   4.272   0.478 -0.6925  0.3249 -0.4034
 3250WAT      O 9960   0.666   1.508   4.852 -0.2672  0.7808 -0.3223
 3250WAT     H1 9961   0.615   1.568   4.907 -0.1289  0.5549  0.0525
 3250WAT     H2 9962   0.757   1.524   4.878 -0.2510  0.1926  0.0001
 3251WAT      O 9963   0.585   3.899   4.992  0.8959  0.5247 -0.2537
 3251WAT     H1 9964   0.639   3.865   4.921  0.4112  0.2244 -0.4762
 3251WAT     H2 9965   0.576   3.993   4.972  2.4127  0.8689  0.4784
 3252WAT      O 9966   0.798   3.267   4.517  0.0358  0.6995 -0.4256
 3252WAT     H1 9967   0.820   3.324   4.443  0.5133  1.7692  0.5101
 3252WAT     H2 9968   0.721   3.218   4.487  0.0033  1.3661 -1.4994
 3253WAT      O 9969   1.204   1.869   5.052  0.4682  0.3923 -0.4412
 3253WAT     H1 9970   1.117   1.853   5.013  0.5951 -0.3262 -0.4332
 3253WAT     H2 9971   1.187   1.874   5.146  0.2597  1.4756 -0.5229
 3254WAT      O 9972   4.932   2.597   3.677 -0.1437 -0.6649 -0.2644
 3254WAT     H1 9973   4.858   2.657   3.680  0.5470  0.2389 -0.6887
 3254WAT     H2 9974   4.959   2.587   3.768 -0.1782 -0.1993 -0.1985
 3255WAT      O 9975   1.787   1.431   1.584  0.2604  0.2666  0.4019
 3255WAT     H1 9976   1.868   1.444   1.633 -0.1369 -1.3831  1.6024
 3255WAT     H2 9977   1.748   1.353   1.623 -1.4376  0.4586 -0.7928
 3256WAT      O 9978   3.805   1.952   4.984 -0.7975  0.4441 -0.6123
 3256WAT     H1 9979   3.801   1.924   4.892 -1.0860 -1.1188 -0.1615
 3256WAT     H2 9980   3.893   1.929   5.012 -0.4088  1.7326 -0.7150
 3257WAT      O 9981   1.577   2.503   5.788 -0.3101  0.1269  0.0573
 3257WAT     H1 9982   1.563   2.426   5.843  4.3972 -1.2358 -0.2209
 3257WAT     H2 9983   1.602   2.467   5.703 -2.8404  2.1736 -1.7060
 3258WAT      O 9984   4.434   1.674   3.235 -0.0855  0.2498  0.0250
 3258WAT     H1 9985   4.525   1.703   3.234  0.6478 -1.8884 -0.5223
 3258WAT     H2 9986   4.409   1.679   3.328  1.2508 -0.9347  0.4906
 3259WAT      O 9987   0.496   3.776   5.496  0.3504 -0.5439 -0.1723
 3259WAT     H1 9988   0.547   3.842   5.449  1.1310  0.9535  2.5767
 3259WAT     H2 9989   0.563   3.717   5.532 -0.1556 -0.9659  0.0845
 3260WAT      O 9990   0.376   2.292   5.041  0.6274  0.0631 -0.7665
 3260WAT     H1 9991   0.390   2.277   4.948  1.5846 -0.6063 -0.5371
 3260WAT     H2 9992   0.381   2.205   5.080  1.1445  0.4314  0.0130
 3261WAT      O 9993   2.219   4.352   5.669 -0.4115 -0.9034  0.1776
 3261WAT     H1 9994   2.145   4.399   5.708  0.0781 -0.7753  0.9661
 3261WAT     H2 9995   2.266   4.314   5.744  1.4460  0.6533 -0.1359
 3262WAT      O 9996   4.481   3.952   0.939 -0.6937  0.2461  0.1809
 3262WAT     H1 9997   4.528   3.879   0.980  0.9096  0.3573 -1.3360
 3262WAT     H2 9998   4.463   4.011   1.012  0.0370 -0.6016  1.0937
 3263WAT      O 9999   4.915   2.532   3.323 -1.0860 -0.1082 -0.1485
 3263WAT     H110000   4.918   2.514   3.229  1.2077  0.5658 -0.2742
 3263WAT     H210001   4.905   2.627   3.329  0.2486  0.0273  0.2246
 3264WAT      O10002   1.126   3.241   2.862  0.4040 -0.1800  0.4061
 3264WAT     H110003   1.061   3.171   2.857  0.3775 -0.1979  0.9543
 3264WAT     H210004   1.197   3.204   2.915 -0.4531  0.8492  2.3655
 3265WAT      O10005   0.082   3.596   5.444 -0.3479  0.4347  0.2953
 3265WAT     H110006   0.175   3.609   5.430 -0.0359 -1.0320  0.8172
 3265WAT     H210007   0.045   3.597   5.355  0.4079 -0.5611 -0.0518
 3266WAT      O10008   3.454   3.210   1.188  0.5129 -0.0869  0.1781
 3266WAT     H110009   3.431   3.199   1.280 -0.2313  1.2816  0.1861
 3266WAT     H210010   3.389   3.157   1.140  0.8758 -0.7647  0.4192
 3267WAT      O10011   2.941   3.311   0.607 -0.1157  0.2254 -0.5605
 3267WAT     H110012   2.867   3.251   0.610 -0.0421  0.1609  0.1848
 3267WAT     H210013   2.902   3.398   0.614 -0.0425  0.1349  1.7958
 3268WAT      O10014   2.365   2.218   2.036 -0.1667  0.0602  0.3466
 3268WAT     H110015   2.324   2.250   1.956 -0.5499 -0.6776  0.2362
 3268WAT     H210016   2.305   2.149   2.067  0.5964 -0.5022  0.6018
 3269WAT      O10017   1.962   2.856   3.127  0.3109 -0.3764 -0.0049
 3269WAT     H110018   1.885   2.877   3.076 -0.2111  0.0993  0.9492
 3269WAT     H210019   2.012   2.938   3.131 -1.5579  0.8061  3.4250
 3270WAT      O10020   0.650   4.032   1.023 -0.0774  0.0373  0.4810
 3270WAT     H110021   0.625   4.056   0.933 -1.3394  0.7619  1.0111
 3270WAT     H210022   0.580   4.066   1.078  0.6837 -0.3933  1.7644
 3271WAT      O10023   4.969   2.029   0.662 -0.6451 -0.2723  0.4473
 3271WAT     H110024   4.929   1.983   0.589 -1.3581 -0.6843  1.0775
 3271WAT     H210025   4.991   1.960   0.725  0.2973  0.0327  0.4719
 3272WAT      O10026   1.811   1.143   0.626  0.0604  0.3153 -0.3419
 3272WAT     H110027   1.849   1.055   0.619  0.6765  0.5427  0.0122
 3272WAT     H210028   1.835   1.172   0.714  1.2907  1.4722 -1.0064
 3273WAT      O10029   0.955   1.135   3.712 -0.0962  0.0626 -0.3057
 3273WAT     H110030   1.045   1.165   3.721 -0.1022  0.0100 -0.0710
 3273WAT     H210031   0.941   1.077   3.787 -0.8005  1.2515  0.5116
 3274WAT      O10032   1.076   3.796   5.544  0.2161 -0.5572  0.2565
 3274WAT     H110033   1.112   3.784   5.633  0.0145  0.7157  0.5271
 3274WAT     H210034   1.031   3.880   5.548  0.9328 -0.0759 -1.3008
 3275WAT      O10035   1.069   4.402   3.395  0.9166 -0.3400 -0.8585
 3275WAT     H110036   1.103   4.437   3.478 -0.8592  0.1046 -0.2668
 3275WAT     H210037   0.990   4.353   3.420  1.2378 -1.5668 -2.1227
 3276WAT      O10038   3.762   4.804   5.017 -0.3984  0.5440  1.0791
 3276WAT     H110039   3.808   4.774   5.095  2.2009  0.8474 -0.2203
 3276WAT     H210040   3.782   4.739   4.950 -2.2299  0.4995  0.5093
 3277WAT      O10041   3.457   4.105   0.947  0.2862 -0.5122 -0.0548
 3277WAT     H110042   3.409   4.150   0.879  0.1583  0.2294  0.5127
 3277WAT     H210043   3.391   4.079   1.011  0.5223 -0.3072  0.2775
 3278WAT      O10044   4.791   1.735   5.773  0.1497 -0.4997  0.3884
 3278WAT     H110045   4.795   1.658   5.829  2.2966 -1.8541 -1.5040
 3278WAT     H210046   4.847   1.715   5.699 -2.0797  1.4376 -2.0223
 3279WAT      O10047   0.069   2.074   4.706 -0.5763 -0.1688  0.3596
 3279WAT     H110048   0.007   2.141   4.680 -1.8003 -1.4736 -0.2240
 3279WAT     H210049   0.110   2.108   4.786  0.9755  2.5291 -1.4318
 3280WAT      O10050   0.156   2.927   4.668  0.0665 -0.0191 -0.3061
 3280WAT     H110051   0.181   2.942   4.577  0.8270  1.4328  0.1167
 3280WAT     H210052   0.153   3.014   4.707 -2.1442 -0.4361  0.6109
 3281WAT      O10053   2.084   1.755   4.792  0.1909  0.4448  0.1143
 3281WAT     H110054   1.990   1.773   4.789  0.0959 -0.1788 -1.4261
 3281WAT     H210055   2.115   1.771   4.703  0.9864 -2.1473 -0.1642
 3282WAT      O10056   1.932   4.959   5.438 -0.0690 -0.2619 -0.6801
 3282WAT     H110057   1.963   5.049   5.427 -0.2071 -0.2737 -1.2070
 3282WAT     H210058   2.011   4.906   5.438  0.0774 -0.0735  0.4864
 3283WAT      O10059   1.574   2.463   4.950 -0.4772  0.0250  0.3154
 3283WAT     H110060   1.511   2.533   4.931 -0.5444  0.2312  1.2581
 3283WAT     H210061   1.566   2.448   5.044  0.8618  0.0452  0.4570
 3284WAT      O10062   3.575   4.261   4.555 -0.0677  0.0006 -0.3239
 3284WAT     H110063   3.539   4.254   4.466  0.1199 -1.1903 -0.3272
 3284WAT     H210064   3.498   4.264   4.612 -0.1872  0.7099 -0.5094
 3285WAT      O10065   3.309   1.127   3.957 -0.1215 -0.3070 -0.4739
 3285WAT     H110066   3.388   1.103   4.005 -0.1839 -0.9579 -0.6803
 3285WAT     H210067   3.238   1.115   4.021 -0.0451  0.4256 -0.2423
 3286WAT      O10068   0.147   1.844   0.798 -0.2071 -0.1584 -0.2241
 3286WAT     H110069   0.134   1.872   0.889  0.8581 -1.0921  0.2321
 3286WAT     H210070   0.139   1.749   0.801  1.3118 -0.3289 -0.8306
 3287WAT      O10071   4.267   3.410   4.405 -0.3272  0.1968 -0.5077
 3287WAT     H110072   4.241   3.326   4.443  1.2524 -0.2250 -0.3045
 3287WAT     H210073   4.305   3.388   4.321  0.0540  0.7122 -0.4776
 3288WAT      O10074   2.402   0.875   4.314  0.0310  0.0711  0.4114
 3288WAT     H110075   2.401   0.939   4.385 -2.5386  0.9336 -0.3375
 3288WAT     H210076   2.361   0.919   4.240  0.6052 -1.5764 -0.9603
 3289WAT      O10077   2.190   3.641   0.494  0.1049  0.1219 -0.8506
 3289WAT     H110078   2.233   3.709   0.443  2.7356 -1.5346 -1.0571
 3289WAT     H210079   2.144   3.587   0.429  1.4847 -0.6257 -1.2447
 3290WAT      O10080   2.059   1.953   0.244  0.1983  0.3376  0.5691
 3290WAT     H110081   2.016   1.914   0.320  0.7850 -0.7782  0.3525
 3290WAT     H210082   2.145   1.981   0.277 -0.4260  2.0161  0.8591
 3291WAT      O10083   3.713   5.236   1.510  0.0916  0.4398  0.8014
 3291WAT     H110084   3.744   5.326   1.506  0.2181  0.4074  1.0483
 3291WAT     H210085   3.729   5.201   1.422 -0.7527  0.9193  0.4453
 3292WAT      O10086   4.603   1.138   3.023 -0.3613 -0.5953  0.2632
 3292WAT     H110087   4.539   1.068   3.010 -0.1026 -0.5611 -1.3980
 3292WAT     H210088   4.666   1.127   2.952  0.2179  0.7405  0.5408
 3293WAT      O10089   0.882   3.710   1.809 -0.4892  0.1601  0.5204
 3293WAT     H110090   0.958   3.757   1.846  0.2106 -0.8542  0.3994
 3293WAT     H210091   0.812   3.726   1.873  0.6641 -1.4622  2.3198
 3294WAT      O10092   1.519   3.150   3.828  0.3653  0.5182 -0.1302
 3294WAT     H110093   1.503   3.060   3.799  3.1889 -0.0843 -0.1164
 3294WAT     H210094   1.529   3.199   3.746 -0.6417  0.7250 -0.1365
 3295WAT      O10095   2.604   4.381   5.030 -0.2810  0.2601  1.1628
 3295WAT     H110096   2.628   4.407   5.119 -0.3532  0.0064  1.2576
 3295WAT     H210097   2.534   4.317   5.041  0.3294 -0.4521  0.9603
 3296WAT      O10098   4.195   3.437   5.026 -0.2118  0.1782  0.1421
 3296WAT     H110099   4.107   3.475   5.023 -0.4926 -0.4254  0.6936
 3296WAT     H210100   4.240   3.477   4.951 -1.1341  0.0445 -0.5013
 3297WAT      O10101   1.088   2.142   2.443  0.0422  0.1370 -0.4737
 3297WAT     H110102   1.163   2.153   2.385  0.4219 -0.2038 -0.0531
 3297WAT     H210103   1.122   2.163   2.530 -0.2044 -0.5441 -0.2021
 3298WAT      O10104   4.379   3.447   5.626 -0.0022 -0.1104  0.2537
 3298WAT     H110105   4.287   3.437   5.602 -0.1107  1.3990 -0.0780
 3298WAT     H210106   4.379   3.447   5.721 -0.4352  0.5258  0.2579
 3299WAT      O10107   0.845   2.265   0.352 -0.1976  0.4867 -0.0630
 3299WAT     H110108   0.881   2.281   0.265  0.0427 -0.5417 -0.1708
 3299WAT     H210109   0.872   2.340   0.404  0.6119  0.5739 -0.5954
 3300WAT      O10110   1.594   2.026   4.447 -0.1439  0.1505 -0.7510
 3300WAT     H110111   1.556   2.106   4.410  1.1523  0.8830 -0.5815
 3300WAT     H210112   1.554   1.955   4.397 -1.0796  0.9165 -1.1322
 3301WAT      O10113   4.463   1.647   0.052 -0.2593 -0.0527  0.5498
 3301WAT     H110114   4.531   1.592   0.014  0.7032  1.2528  0.3177
 3301WAT     H210115   4.471   1.634   0.147 -0.4764 -0.7901  0.4747
 3302WAT      O10116   0.598   3.452   4.731  0.2710 -0.3976 -0.4731
 3302WAT     H110117   0.690   3.425   4.734  0.6122  0.7531 -0.0524
 3302WAT     H210118   0.550   3.378   4.767  1.1952 -0.3814  0.8717
 3303WAT      O10119   1.469   4.617   2.659  0.4548  0.9674  0.0150
 3303WAT     H110120   1.548   4.568   2.681  0.2117  0.2096 -0.7722
 3303WAT     H210121   1.400   4.575   2.710 -0.0366 -0.5373 -1.7941
 3304WAT      O10122   4.768   3.182   3.042 -0.4406 -0.0663 -0.1578
 3304WAT     H110123   4.705   3.165   3.112  1.4913 -0.5593  1.5494
 3304WAT     H210124   4.780   3.098   2.999 -0.9337  0.0260 -0.4780
 3305WAT      O10125   2.712   2.449   5.453 -0.1262  0.0534 -0.0220
 3305WAT     H110126   2.777   2.383   5.477 -0.0372  0.8013  2.0459
 3305WAT     H210127   2.689   2.429   5.363  0.1491 -2.5962  0.4241
 3306WAT      O10128   2.253   1.500   4.553  0.2837 -0.1583  0.1601
 3306WAT     H110129   2.182   1.564   4.554  0.0428 -0.3698 -1.2354
 3306WAT     H210130   2.331   1.551   4.576 -0.0574  0.4322  0.0384
 3307WAT      O10131   2.827   4.221   5.777 -0.2902  0.2478  0.1218
 3307WAT     H110132   2.817   4.314   5.797 -0.9705  0.2641 -0.2861
 3307WAT     H210133   2.740   4.192   5.749  0.1108 -0.3184 -0.5739
 3308WAT      O10134   2.615   2.966   4.984 -0.2038 -0.2013  0.3017
 3308WAT     H110135   2.606   3.040   4.924  2.6122 -1.0122 -1.3263
 3308WAT     H210136   2.551   2.983   5.053 -0.8867  2.8078 -0.9058
 3309WAT      O10137   1.971   3.346   2.944  0.4717 -0.2974 -0.4169
 3309WAT     H110138   1.975   3.440   2.962 -0.0576 -0.3437 -0.0382
 3309WAT     H210139   1.937   3.340   2.855 -0.8512 -0.1548  0.0605
 3310WAT      O10140   2.188   2.239   3.482  0.2345  0.0345  0.2028
 3310WAT     H110141   2.177   2.333   3.489 -1.9009  0.0428 -1.9828
 3310WAT     H210142   2.105   2.203   3.515  0.7651 -1.0561  0.3938
 3311WAT      O10143   4.889   4.045   0.073 -0.2600  0.5301 -0.1215
 3311WAT     H110144   4.887   4.078   0.163 -1.2100  0.5734 -0.1454
 3311WAT     H210145   4.915   4.121   0.021  0.0452  0.5722  0.0908
 3312WAT      O10146   2.960   2.402   4.518 -0.3002  0.4685  0.2260
 3312WAT     H110147   2.966   2.333   4.584 -0.5746  1.0807  0.9007
 3312WAT     H210148   3.051   2.430   4.505 -0.2496  0.3774  0.3762
 3313WAT      O10149   2.783   2.245   0.684 -0.5267 -0.3869  0.3316
 3313WAT     H110150   2.819   2.166   0.643 -1.0004  0.6867 -2.3737
 3313WAT     H210151   2.858   2.302   0.697 -0.5653 -0.0909 -0.6618
 3314WAT      O10152   2.181   5.400   3.222  0.5230  0.1641 -0.5379
 3314WAT     H110153   2.246   5.410   3.153 -0.8706 -0.1962 -1.9629
 3314WAT     H210154   2.192   5.478   3.276  2.0624  0.1538 -0.7836
 3315WAT      O10155   3.768   3.408   2.082 -0.2995 -0.2379  0.0223
 3315WAT     H110156   3.759   3.429   2.174 -1.8938 -0.3709 -0.0813
 3315WAT     H210157   3.863   3.403   2.067  0.0866  2.7888  0.9546
 3316WAT      O10158   0.201   4.107   2.249 -0.2874 -0.2221  0.0424
 3316WAT     H110159   0.223   4.198   2.230  0.8259 -1.1771 -4.0678
 3316WAT     H210160   0.279   4.072   2.293 -0.1718  0.4409  0.3669
 3317WAT      O10161   3.970   2.873   1.462  0.4921 -0.4176 -0.3025
 3317WAT     H110162   3.993   2.847   1.551  0.8410 -0.0654 -0.2902
 3317WAT     H210163   3.891   2.823   1.443 -0.4562  0.6010  0.7556
 3318WAT      O10164   3.350   3.791   5.187  0.3890 -0.4135 -0.4401
 3318WAT     H110165   3.327   3.880   5.216  0.3372 -0.3603 -0.6454
 3318WAT     H210166   3.308   3.782   5.102  1.1367 -0.3051 -0.8333
 3319WAT      O10167   2.473   0.758   3.757  0.1199  0.5364 -0.3659
 3319WAT     H110168   2.518   0.796   3.681 -0.6435 -0.5219 -1.3744
 3319WAT     H210169   2.395   0.812   3.768  0.0694  0.4972 -0.5306
 3320WAT      O10170   4.844   2.069   1.541 -0.3224  0.5187  0.0118
 3320WAT     H110171   4.840   2.034   1.452  0.1337  0.4687  0.0104
 3320WAT     H210172   4.753   2.092   1.561 -0.7998 -1.4494  0.3222
 3321WAT      O10173   0.372   2.979   1.955 -0.0304  0.6382 -0.2956
 3321WAT     H110174   0.380   3.065   1.914 -1.0870 -0.0333 -1.9739
 3321WAT     H210175   0.279   2.971   1.976 -0.0086 -0.2456 -0.5129
 3322WAT      O10176   0.315   2.400   2.458 -0.0844 -0.0776  0.5493
 3322WAT     H110177   0.390   2.364   2.506  0.4551 -0.3048 -0.4282
 3322WAT     H210178   0.354   2.434   2.377 -0.9681  0.3111  0.2833
 3323WAT      O10179   0.174   2.314   3.817  0.0347  0.0317 -0.1646
 3323WAT     H110180   0.200   2.270   3.736 -0.1221  0.5377 -0.4964
 3323WAT     H210181   0.256   2.349   3.852  0.1510 -0.4780  0.0718
 3324WAT      O10182   0.493   1.938   5.275 -0.0959 -0.8241 -0.4130
 3324WAT     H110183   0.576   1.979   5.251 -0.1638  0.1068  0.8589
 3324WAT     H210184   0.465   1.985   5.353 -1.7219 -1.2785 -0.7025
 3325WAT      O10185   0.378   1.455   4.381 -0.2160 -0.3841 -0.4433
 3325WAT     H110186   0.365   1.549   4.372 -1.2158 -0.5543 -0.9418
 3325WAT     H210187   0.447   1.446   4.447 -1.0969  0.6699  0.6615
 3326WAT      O10188   0.581   3.104   4.074 -0.3543  0.5520 -0.2089
 3326WAT     H110189   0.614   3.194   4.075  0.4038  0.3063 -1.3374
 3326WAT     H210190   0.516   3.103   4.005 -1.8702  0.7121  1.1600
 3327WAT      O10191   0.421   2.161   4.306 -0.6866  0.3137 -0.3179
 3327WAT     H110192   0.378   2.171   4.391 -2.4484  0.3849 -1.1696
 3327WAT     H210193   0.366   2.209   4.245  0.4531  0.1317 -1.5460
 3328WAT      O10194   1.986   4.912   4.567 -0.3516 -0.1725  0.0410
 3328WAT     H110195   2.053   4.892   4.502  1.1063 -0.7543  1.6341
 3328WAT     H210196   1.968   5.005   4.554  1.7327  0.3339  0.3595
 3329WAT      O10197   3.777   0.455   1.805  0.4328 -0.0155 -0.1193
 3329WAT     H110198   3.744   0.529   1.753 -2.4055 -1.7085 -0.9228
 3329WAT     H210199   3.760   0.378   1.751  2.9929 -1.3897  0.8313
 3330WAT      O10200   3.065   3.935   3.983 -0.0115 -0.5531  0.3010
 3330WAT     H110201   2.990   3.964   3.931  0.1931 -0.1879  0.2055
 3330WAT     H210202   3.062   3.839   3.977 -1.1105 -0.5932  1.2180
 3331WAT      O10203   3.766   3.626   5.382  0.0053 -0.0225  0.1991
 3331WAT     H110204   3.770   3.705   5.328 -0.0519 -0.1769 -0.0305
 3331WAT     H210205   3.777   3.658   5.471  0.0952  0.2341  0.0977
 3332WAT      O10206   2.687   1.064   2.292 -0.0120 -0.2555 -0.1146
 3332WAT     H110207   2.634   1.116   2.352 -0.2408  0.9406 -1.2851
 3332WAT     H210208   2.777   1.087   2.314 -0.0722 -0.3087  0.1879
 3333WAT      O10209   1.620   1.568   1.959 -0.0212  0.1145 -0.4192
 3333WAT     H110210   1.539   1.544   2.004  0.1245  0.3034 -0.0494
 3333WAT     H210211   1.676   1.490   1.966 -0.4025 -0.2340 -1.2199
 3334WAT      O10212   3.634   1.889   2.551 -0.1033  0.3956 -0.3830
 3334WAT     H110213   3.615   1.801   2.519  0.9974 -0.3330  0.8620
 3334WAT     H210214   3.549   1.932   2.558 -0.6799 -0.6710 -0.7283
 3335WAT      O10215   0.915   3.876   4.500 -0.1584 -0.0038  0.3038
 3335WAT     H110216   1.008   3.870   4.521 -0.1948  0.1261  0.4974
 3335WAT     H210217   0.876   3.921   4.574  0.0037  2.1966 -0.8660
 3336WAT      O10218   4.521   0.755   3.713  0.2818 -0.1821 -0.6444
 3336WAT     H110219   4.606   0.725   3.680  0.9499  1.6457 -0.6747
 3336WAT     H210220   4.529   0.850   3.719 -1.2755 -0.0919  0.7623
 3337WAT      O10221   2.335   4.383   4.261 -0.5895 -0.0893 -0.1869
 3337WAT     H110222   2.424   4.418   4.253 -0.6486  0.2591  0.5928
 3337WAT     H210223   2.324   4.366   4.354 -2.1425  2.0988  0.1179
 3338WAT      O10224   2.139   3.706   5.301  0.2453  0.8657  0.2816
 3338WAT     H110225   2.049   3.674   5.303  0.8063 -1.1393 -1.9284
 3338WAT     H210226   2.186   3.649   5.362  0.7582 -1.0589 -1.7816
 3339WAT      O10227   3.471   1.582   2.907 -0.6768  0.3009  0.0589
 3339WAT     H110228   3.446   1.546   2.992 -0.3172 -0.6033 -0.2083
 3339WAT     H210229   3.567   1.574   2.905 -0.2579  3.5424  0.9980
 3340WAT      O10230   4.924   2.348   2.823 -0.0309 -0.0013  0.0902
 3340WAT     H110231   5.002   2.399   2.804 -0.3579  0.0044 -1.3985
 3340WAT     H210232   4.919   2.345   2.918  1.1399  0.9629  0.1998
 3341WAT      O10233   2.024   3.299   4.119 -0.0538 -0.2774  0.8843
 3341WAT     H110234   2.003   3.386   4.151  0.7807 -0.0296  0.7646
 3341WAT     H210235   1.950   3.277   4.062  1.0694  1.5929 -1.4719
 3342WAT      O10236   3.763   3.202   4.161  0.0292  0.6273 -0.0873
 3342WAT     H110237   3.746   3.245   4.245  0.9541  0.2891  0.2875
 3342WAT     H210238   3.754   3.272   4.096 -0.7958  0.8691  0.2789
 3343WAT      O10239   4.729   4.112   3.620  0.3039  0.4163 -0.0305
 3343WAT     H110240   4.807   4.083   3.666  1.2076  1.8397 -0.6106
 3343WAT     H210241   4.665   4.129   3.689  0.7341 -0.0990  0.4972
 3344WAT      O10242   4.675   4.284   3.425 -0.0619  0.0433  0.3703
 3344WAT     H110243   4.688   4.217   3.492 -1.6138 -1.6351 -0.8987
 3344WAT     H210244   4.611   4.344   3.463 -0.4390 -0.5317  0.6576
 3345WAT      O10245   3.767   2.002   1.528  0.2175 -0.0997  0.4717
 3345WAT     H110246   3.750   1.917   1.488  0.7238 -0.1934  0.4517
 3345WAT     H210247   3.713   2.003   1.607 -0.3958 -0.1167  0.0586
 3346WAT      O10248   0.160   2.543   2.603  0.2409  0.1473  0.4397
 3346WAT     H110249   0.168   2.615   2.540  0.0232  0.7470  1.0718
 3346WAT     H210250   0.215   2.473   2.567 -0.8597 -0.0026 -1.0354
 3347WAT      O10251   0.267   1.466   4.851  0.3468  0.1738  0.1143
 3347WAT     H110252   0.344   1.426   4.810 -0.3352 -0.5668 -0.4909
 3347WAT     H210253   0.260   1.422   4.936 -0.0204 -0.5413 -0.2783
 3348WAT      O10254   1.010   3.364   3.429 -0.0352 -0.4201 -0.4248
 3348WAT     H110255   1.016   3.367   3.525  2.2755 -0.9424 -0.5014
 3348WAT     H210256   0.973   3.278   3.410  1.1230 -1.0218 -0.0205
 3349WAT      O10257   0.313   4.243   3.375  0.0119  0.5160  0.0542
 3349WAT     H110258   0.328   4.180   3.446  0.1376  0.5414  0.0514
 3349WAT     H210259   0.268   4.316   3.416  1.2888  1.1402  0.4089
 3350WAT      O10260   2.060   1.384   3.141 -0.1330 -0.7330 -0.0264
 3350WAT     H110261   1.965   1.372   3.141 -0.1800 -0.3598  0.2550
 3350WAT     H210262   2.073   1.476   3.165  0.1648  0.2663 -3.3954
 3351WAT      O10263   4.616   3.137   2.240  0.2795 -0.5362  0.2471
 3351WAT     H110264   4.529   3.122   2.278  0.2812 -2.5999 -0.4159
 3351WAT     H210265   4.671   3.070   2.280  1.0589 -0.6105 -0.9095
 3352WAT      O10266   4.514   3.234   3.692  0.2478  0.4167  0.0068
 3352WAT     H110267   4.427   3.250   3.727  1.1186  0.5592  2.3034
 3352WAT     H210268   4.521   3.291   3.615 -1.3574  1.0217  0.2783
 3353WAT      O10269   3.679   2.661   4.242  0.1755 -0.2201 -0.1317
 3353WAT     H110270   3.691   2.587   4.183  0.8469  0.0042 -0.2836
 3353WAT     H210271   3.766   2.678   4.278  0.3060  1.2726 -1.0503
 3354WAT      O10272   1.622   3.581   2.461  0.0803 -0.1859  0.5938
 3354WAT     H110273   1.633   3.488   2.444  0.3178 -0.0913  0.2053
 3354WAT     H210274   1.621   3.589   2.556 -1.2926 -0.7364  0.6473
 3355WAT      O10275   0.388   1.328   3.415 -0.3931 -1.0007 -0.4564
 3355WAT     H110276   0.454   1.264   3.441 -1.4846 -2.0776 -0.2830
 3355WAT     H210277   0.317   1.276   3.379  0.1806  0.2698 -3.8157
 3356WAT      O10278   2.128   3.859   5.079  0.1027  0.2291  0.0460
 3356WAT     H110279   2.158   3.791   5.139  0.5396 -0.0574 -0.4907
 3356WAT     H210280   2.145   3.941   5.125  0.6247  0.0218  0.2335
 3357WAT      O10281   1.607   3.058   0.074 -0.5080  0.0316  0.6132
 3357WAT     H110282   1.690   3.101   0.056 -0.9142  1.0691  1.1164
 3357WAT     H210283   1.612   3.033   0.167 -0.9128  0.4861  0.7630
 3358WAT      O10284   1.202   4.071   4.028  0.1942  0.2935 -0.4666
 3358WAT     H110285   1.269   4.061   3.961 -0.2126 -0.1969 -0.8094
 3358WAT     H210286   1.250   4.097   4.107  0.7381  0.3220 -0.8060
 3359WAT      O10287   4.366   3.818   2.828  0.0649 -0.9344  0.4058
 3359WAT     H110288   4.441   3.832   2.769 -0.2342 -1.4840 -0.1226
 3359WAT     H210289   4.388   3.737   2.874  0.1966 -0.6227  0.8953
 3360WAT      O10290   1.302   2.704   2.853  0.4443  0.0307 -0.1136
 3360WAT     H110291   1.293   2.609   2.845 -0.1871  0.2205 -2.2816
 3360WAT     H210292   1.283   2.738   2.766 -1.0323  2.2989  0.9817
 3361WAT      O10293   1.345   2.970   2.469  0.5681 -0.0553  0.0051
 3361WAT     H110294   1.362   2.939   2.380 -0.2033 -0.2373 -0.0894
 3361WAT     H210295   1.362   3.064   2.465  0.8799 -0.1198 -0.2408
 3362WAT      O10296   4.139   1.310   3.918 -0.4471 -0.3042  0.1106
 3362WAT     H110297   4.062   1.263   3.951  0.1688 -0.2076  1.7765
 3362WAT     H210298   4.103   1.391   3.882 -1.1535 -0.3483  0.6781
 3363WAT      O10299   4.547   3.814   5.631 -0.0973  0.2586 -0.1755
 3363WAT     H110300   4.558   3.727   5.592 -1.4069  0.2727 -0.6238
 3363WAT     H210301   4.618   3.820   5.695  1.1183 -0.4138 -1.3972
 3364WAT      O10302   1.503   2.733   4.714  0.8796 -0.2471  0.3972
 3364WAT     H110303   1.449   2.783   4.652 -0.6176  0.2412  2.0147
 3364WAT     H210304   1.440   2.679   4.762  1.8562  0.1208  2.1581
 3365WAT      O10305   2.063   3.551   4.977 -0.0496 -0.2946 -0.2818
 3365WAT     H110306   2.087   3.643   4.965  0.7310 -0.3884  0.4564
 3365WAT     H210307   2.128   3.503   4.926  0.6900 -0.4998  0.8091
 3366WAT      O10308   2.214   4.202   5.200  0.3670 -0.1343 -0.3920
 3366WAT     H110309   2.185   4.117   5.233  0.0683 -0.4222 -1.3595
 3366WAT     H210310   2.238   4.251   5.278 -0.3549 -0.7743  0.2448
 3367WAT      O10311   0.487   1.800   2.935  0.5358  0.5234 -0.3138
 3367WAT     H110312   0.455   1.728   2.990 -2.2954  1.3839 -0.6622
 3367WAT     H210313   0.425   1.804   2.862  1.5792  2.2759 -1.1623
 3368WAT      O10314   2.070   1.620   5.757 -0.3423 -0.0085  0.5687
 3368WAT     H110315   2.097   1.579   5.839  1.5751 -1.8830 -0.8703
 3368WAT     H210316   2.019   1.553   5.712 -2.1360  1.3083  0.5439
 3369WAT      O10317   3.919   3.291   3.091 -0.3732  0.8666  0.1120
 3369WAT     H110318   3.955   3.363   3.041  0.5790  0.0020 -0.4871
 3369WAT     H210319   3.949   3.307   3.181  4.0519 -1.1846 -0.7081
 3370WAT      O10320   2.527   0.677   4.124 -0.3066 -0.0192 -0.6173
 3370WAT     H110321   2.560   0.741   4.061 -0.3266 -1.2828 -1.9756
 3370WAT     H210322   2.492   0.730   4.195 -0.3425  1.4731 -1.6853
 3371WAT      O10323   4.555   1.009   3.702 -0.4434  0.6060  0.0914
 3371WAT     H110324   4.613   1.083   3.684  0.4207 -0.0852  0.0099
 3371WAT     H210325   4.475   1.030   3.653  0.5163  0.5416 -1.5716
 3372WAT      O10326   3.626   4.528   4.236  0.0537 -0.5225 -0.2480
 3372WAT     H110327   3.637   4.433   4.228 -0.3266 -0.6947  1.1429
 3372WAT     H210328   3.641   4.547   4.328 -2.4155  0.4117  0.0464
 3373WAT      O10329   2.217   2.948   3.729  0.1445  0.4122  0.0022
 3373WAT     H110330   2.305   2.923   3.756 -0.4197 -2.7553 -0.7379
 3373WAT     H210331   2.229   2.988   3.643  0.9227  0.9036  0.3247
 3374WAT      O10332   1.653   3.854   2.816  0.1001 -0.2906  1.1801
 3374WAT     H110333   1.572   3.901   2.796  1.1078  1.4339  0.9207
 3374WAT     H210334   1.720   3.901   2.767  1.4763 -0.8270  2.4771
 3375WAT      O10335   2.377   2.244   0.621 -0.0289 -0.0830  0.1576
 3375WAT     H110336   2.432   2.322   0.609 -1.0797  0.6842  0.1389
 3375WAT     H210337   2.304   2.275   0.675 -1.5668 -0.5105 -1.5985
 3376WAT      O10338   3.769   0.610   2.276 -0.5996  0.0133 -0.0806
 3376WAT     H110339   3.757   0.685   2.219 -0.2595 -0.2880 -0.5572
 3376WAT     H210340   3.686   0.602   2.323 -0.6891  0.5922 -0.1350
 3377WAT      O10341   4.507   3.410   3.432  0.7487  0.0784  0.2875
 3377WAT     H110342   4.421   3.450   3.434 -0.0813 -1.6048 -0.1244
 3377WAT     H210343   4.565   3.479   3.398 -0.5952  0.9291 -0.3360
 3378WAT      O10344   0.653   2.062   1.698  0.6998  0.7960  0.1048
 3378WAT     H110345   0.719   2.007   1.741 -0.9260 -0.2944  1.3447
 3378WAT     H210346   0.684   2.152   1.711  1.7295  0.3314  0.9941
 3379WAT      O10347   0.148   3.805   4.423  0.1356 -0.2469  0.7471
 3379WAT     H110348   0.119   3.765   4.505 -0.2086 -0.9815  0.2760
 3379WAT     H210349   0.068   3.840   4.384  0.5640  1.9969  1.6905
 3380WAT      O10350   2.631   3.504   1.643  0.2012 -0.1160  0.1756
 3380WAT     H110351   2.661   3.440   1.707  0.5099 -0.1424  0.0059
 3380WAT     H210352   2.678   3.482   1.562 -0.8728 -0.6607 -0.3173
 3381WAT      O10353   2.887   1.765   2.661  0.0543  0.2410 -0.2199
 3381WAT     H110354   2.795   1.783   2.645  0.5970  0.7470 -3.4455
 3381WAT     H210355   2.897   1.672   2.642  0.1596  0.1254  0.3993
 3382WAT      O10356   0.642   1.528   3.651 -0.2158 -0.2267  0.5931
 3382WAT     H110357   0.669   1.538   3.742 -1.2751  0.5776  0.8351
 3382WAT     H210358   0.547   1.528   3.654 -0.2630 -0.5956 -0.4830
 3383WAT      O10359   4.777   3.068   0.011  0.8707 -0.1222  0.1066
 3383WAT     H110360   4.722   3.078   0.089 -1.0182  0.3857 -1.2181
 3383WAT     H210361   4.804   3.157  -0.011 -0.2278  0.0022 -0.8759
 3384WAT      O10362   2.659   2.151   2.953 -0.4026 -0.0828  0.3684
 3384WAT     H110363   2.721   2.080   2.970  0.6822  0.5702 -0.7545
 3384WAT     H210364   2.708   2.231   2.971 -1.0468  0.4344 -0.1550
 3385WAT      O10365   4.780   1.708   3.888 -0.0499  0.0980  0.0456
 3385WAT     H110366   4.692   1.741   3.869 -1.0162 -2.3078  0.0024
 3385WAT     H210367   4.827   1.716   3.804 -0.8839 -0.4755 -0.4882
 3386WAT      O10368   0.179   2.489   5.067  1.0138 -0.1631  0.4589
 3386WAT     H110369   0.209   2.511   4.979 -1.7310 -0.3858 -0.6315
 3386WAT     H210370   0.221   2.404   5.085  0.7872 -0.6581 -1.1119
 3387WAT      O10371   4.150   3.336   4.123 -0.1687  0.2312 -0.0248
 3387WAT     H110372   4.163   3.247   4.156 -1.8675  0.4104  1.2344
 3387WAT     H210373   4.238   3.375   4.125  0.7028 -1.5299 -1.0880
 3388WAT      O10374   2.694   4.381   2.990 -0.2490  0.1797 -0.0469
 3388WAT     H110375   2.760   4.324   3.029 -0.5024  0.0540  0.2063
 3388WAT     H210376   2.651   4.327   2.924 -0.5021  0.0658  0.2062
 3389WAT      O10377   1.899   4.147   1.949  0.0150 -0.9036 -0.0967
 3389WAT     H110378   1.987   4.147   1.912  0.0388  0.1486 -0.0789
 3389WAT     H210379   1.850   4.086   1.895  0.5115 -0.7464 -0.7364
 3390WAT      O10380   0.144   3.864   4.114  0.0776 -0.3783  0.4740
 3390WAT     H110381   0.143   3.775   4.151  1.1755  0.4390  2.6389
 3390WAT     H210382   0.126   3.921   4.188  0.3958  1.2754 -0.6708
 3391WAT      O10383   0.971   1.581   5.673 -0.1343 -0.1296  0.4336
 3391WAT     H110384   1.008   1.642   5.610  0.0044 -1.2331 -0.6003
 3391WAT     H210385   1.028   1.504   5.668 -2.5801 -2.0118 -1.4189
 3392WAT      O10386   2.884   3.815   3.175 -0.4667 -0.3954 -0.0574
 3392WAT     H110387   2.894   3.784   3.085  1.9133 -1.4407  0.4567
 3392WAT     H210388   2.798   3.855   3.178 -1.1857 -1.5748 -2.4319
 3393WAT      O10389   3.967   0.843   0.137  0.2630  0.5809  0.3166
 3393WAT     H110390   3.978   0.921   0.084 -0.7226  0.3907 -0.1761
 3393WAT     H210391   3.939   0.875   0.223 -1.7032  0.7159 -0.3315
 3394WAT      O10392   1.242   2.248   0.912  0.0555 -0.1915  0.1993
 3394WAT     H110393   1.160   2.215   0.946  0.0844  1.1755  1.7356
 3394WAT     H210394   1.240   2.228   0.819 -1.4167 -1.3344  0.4527
 3395WAT      O10395   3.932   2.161   3.756  0.9473  0.0598  0.3907
 3395WAT     H110396   3.897   2.244   3.789  1.1871 -0.4166  1.9083
 3395WAT     H210397   4.003   2.187   3.697  1.1918  0.9328  1.0553
 3396WAT      O10398   3.731   4.344   1.590  0.1380  0.6561 -0.7427
 3396WAT     H110399   3.683   4.263   1.577  0.2021 -0.2968  3.5232
 3396WAT     H210400   3.821   4.324   1.562 -0.2151 -0.1329 -1.3351
 3397WAT      O10401   0.605   1.941   3.651  0.0206  0.6755 -0.8565
 3397WAT     H110402   0.574   1.856   3.621  1.5683  0.7062 -2.6915
 3397WAT     H210403   0.671   1.920   3.717  0.0820  0.4744 -0.9820
 3398WAT      O10404   3.200   0.093   3.392 -0.1769  0.2365  0.1788
 3398WAT     H110405   3.164   0.094   3.481  0.0450 -1.0446  0.3077
 3398WAT     H210406   3.294   0.081   3.404 -0.0987  0.4258 -0.2218
 3399WAT      O10407   1.437   2.676   3.857 -0.6161  0.1157 -0.1659
 3399WAT     H110408   1.394   2.708   3.936  1.1886 -0.3982  1.1112
 3399WAT     H210409   1.438   2.580   3.868  1.1095  0.1192  0.0694
 3400WAT      O10410   0.016   2.950   2.440  0.1003  0.0220 -0.1582
 3400WAT     H110411   0.073   2.897   2.384 -0.3880 -0.6634 -0.0157
 3400WAT     H210412   0.023   3.038   2.404  0.3418 -0.2786 -0.8652
 3401WAT      O10413   4.143   4.337   1.774 -0.4441 -0.0592 -0.5009
 3401WAT     H110414   4.219   4.381   1.811  0.4522 -2.2181  0.3404
 3401WAT     H210415   4.123   4.388   1.695  0.5120  1.8177  0.4000
 3402WAT      O10416   3.380   5.029   1.206 -0.0802 -0.0417  0.3738
 3402WAT     H110417   3.437   4.955   1.226 -3.0994 -2.3574  1.0850
 3402WAT     H210418   3.359   5.018   1.113  0.8218  0.9888  0.0313
 3403WAT      O10419   0.060   2.396   0.499  0.3698  0.0602  0.8704
 3403WAT     H110420   0.068   2.365   0.589 -0.4038 -1.8785  0.3347
 3403WAT     H210421  -0.008   2.340   0.460 -0.3598  1.8250 -0.5183
 3404WAT      O10422   1.011   3.190   1.933  0.0129  0.2052  0.4282
 3404WAT     H110423   0.926   3.179   1.975  0.3183 -0.3439  0.9011
 3404WAT     H210424   1.007   3.279   1.896 -2.1261 -1.0235 -2.6914
 3405WAT      O10425   4.864   2.208   0.318  0.0877 -0.1438  0.6372
 3405WAT     H110426   4.851   2.268   0.245 -0.9825  0.2368  1.1204
 3405WAT     H210427   4.911   2.134   0.280  0.3441  0.4451 -0.2317
 3406WAT      O10428   1.775   1.143   3.531  0.0607  0.2865  0.1857
 3406WAT     H110429   1.753   1.186   3.448 -0.4567 -0.4560 -0.0780
 3406WAT     H210430   1.867   1.164   3.545  1.0102 -1.7975 -2.0291
 3407WAT      O10431   3.629   2.713   2.974 -0.5994 -0.0276 -0.0427
 3407WAT     H110432   3.595   2.801   2.991 -0.1331 -0.1021  1.4000
 3407WAT     H210433   3.557   2.655   2.999 -1.0187 -0.0795 -1.2776
 3408WAT      O10434   0.986   1.374   2.436 -0.5582 -0.7976 -0.0294
 3408WAT     H110435   1.050   1.350   2.504  1.3444 -1.9809 -2.0915
 3408WAT     H210436   0.941   1.450   2.472  0.0578 -1.5801  2.7080
 3409WAT      O10437   0.262   3.051   2.607 -0.1841 -0.2223 -0.5649
 3409WAT     H110438   0.185   3.045   2.664  1.0334 -2.0479  1.0733
 3409WAT     H210439   0.230   3.091   2.526 -2.5483  0.2316  0.5042
 3410WAT      O10440   3.553   0.233   1.768  0.2697  0.1234 -0.1192
 3410WAT     H110441   3.478   0.291   1.756 -1.7951 -2.2296  0.4115
 3410WAT     H210442   3.560   0.222   1.863  0.0955 -1.0659 -0.2230
 3411WAT      O10443   4.481   2.043   0.459  0.0527 -0.0233  0.2499
 3411WAT     H110444   4.567   2.083   0.473  1.2232 -2.1762 -0.4414
 3411WAT     H210445   4.497   1.949   0.462 -2.1814 -0.4912 -0.5170
 3412WAT      O10446   4.464   1.740   0.531  0.0825  0.3063 -0.2244
 3412WAT     H110447   4.427   1.683   0.464  0.4124  0.2251 -0.3438
 3412WAT     H210448   4.391   1.795   0.559 -0.0033  0.5303 -0.8480
 3413WAT      O10449   2.074   3.076   1.553  0.0031  0.3216  0.0851
 3413WAT     H110450   2.148   3.030   1.592 -0.4662 -0.0644  0.5279
 3413WAT     H210451   2.106   3.104   1.467  1.4400  2.1577  1.1206
 3414WAT      O10452   3.899   4.283   5.749  0.4691  0.2688 -0.0978
 3414WAT     H110453   3.812   4.250   5.725 -0.1082  0.6981  1.3166
 3414WAT     H210454   3.902   4.372   5.712 -0.7668  1.2722  2.0299
 3415WAT      O10455   2.176   5.011   4.190  0.1792  0.2758 -0.3669
 3415WAT     H110456   2.258   5.050   4.159  0.3170  0.9299  0.7422
 3415WAT     H210457   2.200   4.965   4.271 -0.9203  2.7628  1.5391
 3416WAT      O10458   2.077   0.130   2.397 -0.2418  0.0671  0.0626
 3416WAT     H110459   2.073   0.113   2.491  0.3881 -1.0735 -0.1083
 3416WAT     H210460   2.068   0.044   2.356  0.0734  0.4845 -0.9126
 3417WAT      O10461   0.264   2.073   5.157 -0.2297 -0.0954  0.0443
 3417WAT     H110462   0.231   2.097   5.244  0.3581 -1.0576  0.5540
 3417WAT     H210463   0.305   1.987   5.170 -0.3824 -0.3790 -1.2491
 3418WAT      O10464   0.249   2.317   4.165  0.1887  0.2679 -0.3512
 3418WAT     H110465   0.167   2.333   4.119 -0.3751  0.2380  0.6190
 3418WAT     H210466   0.254   2.386   4.231  0.7270  0.0131 -0.1152
 3419WAT      O10467   1.930   4.275   3.925 -0.4548 -0.6354 -0.2886
 3419WAT     H110468   1.941   4.328   4.004 -0.4610 -0.8882 -0.1181
 3419WAT     H210469   2.007   4.294   3.872  0.3478 -1.6553  0.4671
 3420WAT      O10470   2.136   1.710   2.186 -0.1439  0.5024  0.0825
 3420WAT     H110471   2.220   1.713   2.139 -0.0186  0.1968  0.2879
 3420WAT     H210472   2.072   1.683   2.120  0.0674 -0.1396  0.1344
 3421WAT      O10473   1.190   4.183   1.920 -0.2852 -0.2983  0.8534
 3421WAT     H110474   1.225   4.129   1.991 -1.1618 -0.6896  0.9984
 3421WAT     H210475   1.114   4.226   1.958 -0.1657  0.2872  0.4438
 3422WAT      O10476   0.496   1.831   4.716 -0.1665 -0.1580 -0.0105
 3422WAT     H110477   0.558   1.904   4.724 -0.2280 -0.0043 -0.8877
 3422WAT     H210478   0.461   1.820   4.805  1.2644 -0.3936  0.5454
 3423WAT      O10479   2.880   2.134   2.744 -0.0247 -0.5204  0.4247
 3423WAT     H110480   2.888   2.087   2.661 -1.4477 -1.7600  0.9358
 3423WAT     H210481   2.874   2.065   2.810  2.0145  0.4258  1.7195
 3424WAT      O10482   4.070   1.532   0.187 -1.0132 -0.5051  0.4109
 3424WAT     H110483   4.044   1.444   0.160  1.0195 -1.1434  0.3972
 3424WAT     H210484   4.088   1.578   0.106 -3.8004  0.5838  0.2962
 3425WAT      O10485   3.834   4.076   3.074 -0.1739 -0.5480 -0.2159
 3425WAT     H110486   3.844   4.131   2.996 -0.7305 -0.0533  0.0640
 3425WAT     H210487   3.834   4.137   3.147  1.6798 -1.0943  0.2986
 3426WAT      O10488   0.528   4.172   0.771 -0.6300 -0.4721  0.1593
 3426WAT     H110489   0.548   4.266   0.782 -0.7340 -0.3872 -0.3531
 3426WAT     H210490   0.434   4.166   0.787 -0.2216 -0.9154  2.8374
 3427WAT      O10491   0.046   3.817   5.632  0.1268  0.0303  0.1371
 3427WAT     H110492   0.068   3.761   5.558 -0.2983  0.1783 -0.1061
 3427WAT     H210493   0.130   3.852   5.661  0.4548 -1.0913  0.5965
 3428WAT      O10494   3.647   2.029   3.071 -0.0823  0.1198  1.1928
 3428WAT     H110495   3.560   2.069   3.081 -0.3341 -0.7142  2.5572
 3428WAT     H210496   3.703   2.102   3.045 -1.2553  0.5871 -0.1855
 3429WAT      O10497   3.482   2.979   2.935  0.0305 -0.1647  0.2328
 3429WAT     H110498   3.547   3.033   2.980  0.8510 -1.5832  0.8284
 3429WAT     H210499   3.505   2.987   2.842 -0.9970  1.9154  0.1182
 3430WAT      O10500   2.118   3.801   1.178 -0.2964  0.1873 -0.0031
 3430WAT     H110501   2.171   3.880   1.187  1.3832 -0.6230 -2.0163
 3430WAT     H210502   2.050   3.825   1.115  0.4650 -0.0712 -0.9355
 3431WAT      O10503   1.311   3.249   1.463 -0.7771 -0.1004 -0.0059
 3431WAT     H110504   1.254   3.326   1.457 -0.3675  0.2940  0.9618
 3431WAT     H210505   1.308   3.211   1.375 -0.4569  1.4242 -0.7287
 3432WAT      O10506   1.978   2.613   2.582  0.1472 -0.4567  0.0653
 3432WAT     H110507   1.971   2.670   2.505 -1.9847  1.6354  1.6677
 3432WAT     H210508   2.071   2.613   2.604  0.2772  2.1893 -0.2056
 3433WAT      O10509   3.815   5.236   0.587  0.0598  0.2716  0.2787
 3433WAT     H110510   3.783   5.326   0.592  0.7057  0.5029  0.3776
 3433WAT     H210511   3.763   5.188   0.652 -0.4700  0.5163  0.0346
 3434WAT      O10512   1.741   2.699   5.189  0.0752  0.4029  0.3787
 3434WAT     H110513   1.704   2.764   5.249 -0.7604 -0.2572  0.5944
 3434WAT     H210514   1.699   2.716   5.105  1.8297  1.8460 -0.2852
 3435WAT      O10515   1.832   2.933   2.879 -0.3966  0.3439  0.4450
 3435WAT     H110516   1.770   3.004   2.897 -1.1903 -0.3659  0.5726
 3435WAT     H210517   1.917   2.970   2.901 -0.9572  0.7431  2.0572
 3436WAT      O10518   4.078   1.853   2.323  0.0401  0.4253 -0.5186
 3436WAT     H110519   4.016   1.863   2.395 -1.6860 -0.2779 -1.8405
 3436WAT     H210520   4.141   1.924   2.335 -0.0528  0.1931  1.7905
 3437WAT      O10521   0.661   2.350   3.984 -0.0617  0.2362  0.2617
 3437WAT     H110522   0.625   2.410   4.049 -0.4609  0.1206  0.1503
 3437WAT     H210523   0.704   2.407   3.920 -2.0987  0.5655 -0.8906
 3438WAT      O10524   4.839   2.338   3.098 -0.3306 -0.0700  0.3262
 3438WAT     H110525   4.926   2.309   3.127  0.5589 -0.8913 -2.7667
 3438WAT     H210526   4.780   2.306   3.166  1.4758 -2.4924  0.9237
 3439WAT      O10527   3.633   4.689   3.188  0.1236 -0.3919 -0.8664
 3439WAT     H110528   3.538   4.692   3.185  0.1592  0.7180 -2.3940
 3439WAT     H210529   3.661   4.763   3.134  1.8929  1.8440  2.7015
 3440WAT      O10530   0.760   3.394   4.997  0.2059  0.1238 -0.0827
 3440WAT     H110531   0.706   3.472   4.992 -0.5288 -0.2306  1.7394
 3440WAT     H210532   0.733   3.351   5.078  0.1749 -2.3293 -1.3116
 3441WAT      O10533   2.479   2.585   3.330 -0.1560 -0.6454  1.1872
 3441WAT     H110534   2.533   2.661   3.352 -0.9707 -0.5257  2.9395
 3441WAT     H210535   2.401   2.623   3.290  0.7263 -0.7843 -0.7784
 3442WAT      O10536   0.848   4.053   3.735  0.0710  0.1295 -0.3970
 3442WAT     H110537   0.917   4.040   3.671  0.1911 -2.7496  0.1602
 3442WAT     H210538   0.767   4.034   3.688  0.0243 -0.4005 -0.1128
 3443WAT      O10539   2.880   1.346   5.694  0.3608  0.4528  0.0002
 3443WAT     H110540   2.833   1.263   5.685  1.3845 -0.1420 -0.0864
 3443WAT     H210541   2.953   1.325   5.752  0.5911  1.3225  0.0401
 3444WAT      O10542   4.503   2.321   0.188  0.1752  0.3687 -0.5350
 3444WAT     H110543   4.541   2.401   0.225 -1.2513  0.2059  1.5028
 3444WAT     H210544   4.417   2.315   0.230 -0.1134 -1.7790 -1.3158
 3445WAT      O10545   2.060   3.385   2.127 -0.1519  0.2238 -0.6363
 3445WAT     H110546   1.973   3.404   2.162 -0.6999 -2.1419 -0.5472
 3445WAT     H210547   2.103   3.334   2.196  0.3333 -0.8005 -1.6540
 3446WAT      O10548   1.392   3.807   1.222 -0.1297  0.3776 -0.5913
 3446WAT     H110549   1.389   3.725   1.272 -1.1653  0.7792  0.0189
 3446WAT     H210550   1.313   3.854   1.248 -1.0448  0.3505 -3.0584
 3447WAT      O10551   3.703   3.269   0.446 -0.3271 -0.1405  0.2703
 3447WAT     H110552   3.655   3.322   0.510 -0.2518 -1.1178  1.1692
 3447WAT     H210553   3.639   3.251   0.377 -0.5624  0.5008  0.3184
 3448WAT      O10554   4.544   2.367   0.692 -0.5685  0.0488 -0.0821
 3448WAT     H110555   4.536   2.442   0.633  0.1151  0.7602  0.6928
 3448WAT     H210556   4.611   2.312   0.651 -1.4791 -0.4437 -0.9473
 3449WAT      O10557   2.845   0.330   1.992 -0.5578 -0.3683  0.1790
 3449WAT     H110558   2.801   0.249   2.020 -1.8931  0.6685  1.2434
 3449WAT     H210559   2.775   0.382   1.953  0.3807  0.1072 -0.9037
 3450WAT      O10560   3.289   2.564   5.434 -0.1452 -0.0467 -0.0818
 3450WAT     H110561   3.305   2.620   5.358  2.5093  0.7478  0.9562
 3450WAT     H210562   3.238   2.619   5.493  0.9425  0.7084  0.1969
 3451WAT      O10563   3.183   1.973   0.500  0.3797  0.2857  0.1666
 3451WAT     H110564   3.157   1.977   0.408  0.9053  2.1989  0.0494
 3451WAT     H210565   3.108   1.934   0.544 -0.1808  0.0087 -0.9821
 3452WAT      O10566   4.157   2.887   3.936  0.8480 -0.0143  0.5040
 3452WAT     H110567   4.088   2.821   3.943  0.4099  0.3411 -0.4669
 3452WAT     H210568   4.115   2.969   3.961  1.2445  0.0142  1.1173
 3453WAT      O10569   1.079   4.244   2.624 -0.1035  0.4528 -0.2440
 3453WAT     H110570   1.075   4.231   2.719  2.7881 -0.0286 -0.0970
 3453WAT     H210571   1.170   4.271   2.607 -0.9748  2.1793 -2.7218
 3454WAT      O10572   4.500   4.157   3.791 -0.0989  0.4328  0.2288
 3454WAT     H110573   4.406   4.167   3.779 -0.1284 -0.1020 -0.0438
 3454WAT     H210574   4.510   4.134   3.883 -0.3963 -1.1975 -0.1147
 3455WAT      O10575   4.563   2.053   1.222  0.5868  0.0514 -0.3472
 3455WAT     H110576   4.494   2.032   1.285  0.9722 -0.7206 -0.1582
 3455WAT     H210577   4.533   2.132   1.178  0.1147  0.3805  0.5276
 3456WAT      O10578   2.967   3.358   4.317 -0.5770  0.1989 -0.1946
 3456WAT     H110579   3.052   3.354   4.274 -0.6472  1.2404 -0.4380
 3456WAT     H210580   2.966   3.280   4.374  0.5627  0.2165 -0.1297
 3457WAT      O10581   0.027   2.236   4.425 -0.6383 -0.9856 -0.4248
 3457WAT     H110582  -0.004   2.273   4.342 -1.4780 -0.0701  0.2857
 3457WAT     H210583   0.005   2.301   4.491 -2.4689 -2.8195  0.9324
 3458WAT      O10584   2.373   1.542   4.923 -0.4978 -0.5017 -0.5482
 3458WAT     H110585   2.386   1.448   4.911  1.1863 -0.0972 -2.3494
 3458WAT     H210586   2.284   1.550   4.956  0.0450 -2.8509  1.8024
 3459WAT      O10587   3.894   2.243   3.261  0.6654 -0.0152 -0.3448
 3459WAT     H110588   3.919   2.334   3.274  0.5245 -0.0334  0.0921
 3459WAT     H210589   3.970   2.193   3.291  0.9689 -0.0348 -1.1333
 3460WAT      O10590   0.491   3.340   3.532  0.4657  0.1061  0.1581
 3460WAT     H110591   0.537   3.344   3.448  0.6563  3.3001  0.3034
 3460WAT     H210592   0.408   3.297   3.511  0.9377 -0.0842 -1.4495
 3461WAT      O10593   4.080   0.167   1.058  0.1469 -0.0438 -0.1569
 3461WAT     H110594   4.025   0.134   0.988  0.6274 -0.1954 -0.4618
 3461WAT     H210595   4.157   0.111   1.058  0.4560  0.3715  0.0526
 3462WAT      O10596   3.193   2.819   3.363 -0.2666  0.1154 -0.0539
 3462WAT     H110597   3.214   2.857   3.278  2.0587 -3.8644 -1.5320
 3462WAT     H210598   3.274   2.829   3.414 -1.0853  0.9567  1.1240
 3463WAT      O10599   0.833   2.839   4.577  0.0522 -0.5819 -0.2097
 3463WAT     H110600   0.922   2.863   4.601 -0.7747  2.9537 -0.0861
 3463WAT     H210601   0.824   2.868   4.487 -0.5734 -2.3160 -0.7411
 3464WAT      O10602   2.716   3.601   4.499  0.0040 -0.0972 -0.2912
 3464WAT     H110603   2.717   3.691   4.468  1.0847  0.2135  0.5982
 3464WAT     H210604   2.806   3.571   4.487  0.0952 -0.4465  1.1458
 3465WAT      O10605   3.240   2.507   2.913  0.5572  0.0980 -0.1675
 3465WAT     H110606   3.177   2.574   2.887  1.0450  1.5302  2.0562
 3465WAT     H210607   3.192   2.450   2.973  1.2633  1.1940  1.5364
 3466WAT      O10608   4.563   3.450   4.778 -0.0673 -0.0864 -0.6903
 3466WAT     H110609   4.553   3.439   4.872 -1.6528  0.1785 -0.8042
 3466WAT     H210610   4.657   3.442   4.763  0.1277 -1.0051  0.7947
 3467WAT      O10611   2.394   1.634   3.143  0.5539  0.5293 -0.1383
 3467WAT     H110612   2.406   1.696   3.215 -0.0379  0.5431 -0.0434
 3467WAT     H210613   2.335   1.679   3.083 -0.7837 -0.3531  0.4573
 3468WAT      O10614   4.093   5.565   5.712 -0.2350 -0.0216  0.0490
 3468WAT     H110615   4.105   5.659   5.700 -1.3919  0.0121 -1.1444
 3468WAT     H210616   4.028   5.558   5.782  0.2989  0.0415  0.5559
 3469WAT      O10617   2.941   4.327   0.300  0.5132  0.6897 -0.2115
 3469WAT     H110618   2.866   4.383   0.320 -0.8600 -0.9159 -0.6496
 3469WAT     H210619   2.968   4.353   0.211  0.6882  1.4553  0.0537
 3470WAT      O10620   1.796   3.001   3.552  0.1957 -0.0002  0.3944
 3470WAT     H110621   1.773   2.952   3.631 -0.1864  0.7386  0.7525
 3470WAT     H210622   1.872   2.956   3.517  1.6491  0.8332  2.2995
 3471WAT      O10623   0.943   2.471   2.063  0.1165 -0.2527 -0.5239
 3471WAT     H110624   0.978   2.455   2.150 -1.9044  0.2860  0.4488
 3471WAT     H210625   0.861   2.518   2.078  1.0220  2.3281 -2.8256
 3472WAT      O10626   2.820   3.705   4.985 -0.6888 -0.2287  0.5802
 3472WAT     H110627   2.804   3.701   4.891 -0.2415  3.5685  0.1813
 3472WAT     H210628   2.769   3.780   5.016  3.5893  2.4941  2.0967
 3473WAT      O10629   3.739   1.222   1.766  0.1199 -0.7081  0.3207
 3473WAT     H110630   3.705   1.309   1.788  1.8735 -0.1883  1.1567
 3473WAT     H210631   3.673   1.185   1.707  0.1909  1.9339 -1.6145
 3474WAT      O10632   4.693   2.600   1.097 -0.0546  0.0126  0.1130
 3474WAT     H110633   4.634   2.675   1.094 -0.7957 -0.5947 -1.2898
 3474WAT     H210634   4.636   2.524   1.104  0.5938 -0.5402 -0.4073
 3475WAT      O10635   1.142   1.482   2.662 -0.0656  0.1237  0.2816
 3475WAT     H110636   1.186   1.399   2.681 -0.2650  0.6194  3.6566
 3475WAT     H210637   1.200   1.548   2.700 -0.5529  1.4339 -1.1754
 3476WAT      O10638   4.767   2.802   5.818  0.4441 -0.3885 -0.7897
 3476WAT     H110639   4.746   2.895   5.830 -0.9268 -0.7693 -0.0345
 3476WAT     H210640   4.723   2.778   5.736  0.4886 -0.4676 -0.7901
 3477WAT      O10641   4.595   2.832   0.479  0.1882  0.4060  0.1923
 3477WAT     H110642   4.533   2.817   0.408 -0.6986 -0.9287  1.1904
 3477WAT     H210643   4.540   2.837   0.557  1.2644 -0.0272  1.0029
 3478WAT      O10644   3.110   1.245   1.976  0.0988 -0.1520  0.7975
 3478WAT     H110645   3.087   1.173   1.919  2.4758  0.4807 -1.0873
 3478WAT     H210646   3.205   1.240   1.986  0.3626  2.6522  0.6142
 3479WAT      O10647   1.111   2.832   1.314 -0.5090 -0.0658 -0.9324
 3479WAT     H110648   1.027   2.806   1.277  0.4606  0.6172 -3.8331
 3479WAT     H210649   1.136   2.911   1.265  1.5450  0.1145  0.2848
 3480WAT      O10650   2.379   5.424   3.055 -0.2349  0.0765 -0.1143
 3480WAT     H110651   2.420   5.444   3.139 -0.1185  0.2939 -0.2215
 3480WAT     H210652   2.390   5.504   3.004  0.3379 -0.2994 -0.5934
 3481WAT      O10653   0.943   4.039   0.842 -0.2335  0.3824 -0.7528
 3481WAT     H110654   1.007   4.036   0.771  0.0186 -0.0350 -0.5088
 3481WAT     H210655   0.992   4.071   0.917 -0.8136  2.1966 -1.0866
 3482WAT      O10656   0.185   2.015   1.335 -0.2388 -0.2742  0.1552
 3482WAT     H110657   0.187   2.106   1.305 -0.6682 -0.3253 -0.0313
 3482WAT     H210658   0.184   1.963   1.255  0.7359 -0.4686  0.2568
 3483WAT      O10659   3.426   4.329   5.490 -0.4827  0.3324  0.1786
 3483WAT     H110660   3.413   4.268   5.417  0.2988  0.6734 -0.2495
 3483WAT     H210661   3.369   4.295   5.559  1.0514 -1.8214  0.5095
 3484WAT      O10662   0.633   3.531   2.046 -0.5342 -0.8798 -0.4005
 3484WAT     H110663   0.605   3.619   2.069 -2.2371 -1.3927 -0.4209
 3484WAT     H210664   0.706   3.513   2.105  0.3843  0.8244 -0.9480
 3485WAT      O10665   0.658   3.858   1.973  0.1168 -0.2446 -0.3074
 3485WAT     H110666   0.574   3.863   2.018 -0.7545  0.2779 -1.8987
 3485WAT     H210667   0.702   3.940   1.994 -0.5517  0.2727 -0.8850
 3486WAT      O10668   1.645   4.664   5.642 -0.1624 -0.1331 -0.1682
 3486WAT     H110669   1.708   4.653   5.571  0.5345  0.8266  0.2725
 3486WAT     H210670   1.561   4.677   5.598  0.0707 -0.6532 -0.7839
 3487WAT      O10671   1.669   2.519   1.944  0.2743 -0.1140  0.1912
 3487WAT     H110672   1.579   2.551   1.950 -0.5291 -1.5762 -2.4522
 3487WAT     H210673   1.712   2.580   1.885  0.7362 -0.0216  0.6139
 3488WAT      O10674   3.065   3.595   5.020  0.2015  0.2118 -0.3669
 3488WAT     H110675   2.983   3.638   4.995  0.9626  2.0606  0.2163
 3488WAT     H210676   3.133   3.654   4.990  1.2564  0.0727  1.6106
 3489WAT      O10677   2.802   1.487   0.105 -0.0852 -0.9324  0.0184
 3489WAT     H110678   2.833   1.468   0.017  0.5603  1.3276 -0.3195
 3489WAT     H210679   2.709   1.506   0.095  0.1712  0.2022 -0.3669
 3490WAT      O10680   1.242   3.557   0.385 -0.7777 -0.9481  0.3792
 3490WAT     H110681   1.186   3.624   0.345  0.4421 -0.1836 -0.1138
 3490WAT     H210682   1.230   3.480   0.328 -0.4935 -0.4518 -0.3651
 3491WAT      O10683   2.482   4.542   0.373  0.4960 -0.5104  0.1154
 3491WAT     H110684   2.427   4.548   0.451 -1.2643 -3.5991 -0.7152
 3491WAT     H210685   2.569   4.521   0.407 -0.5997 -3.5802  1.3130
 3492WAT      O10686   4.370   3.755   0.069 -0.0763 -0.2651  0.3394
 3492WAT     H110687   4.374   3.743  -0.026 -0.3322 -1.2045  0.4452
 3492WAT     H210688   4.341   3.846   0.080  1.3128  0.3200 -0.4666
 3493WAT      O10689   2.287   4.880   4.862 -0.1191 -0.3767 -0.6258
 3493WAT     H110690   2.237   4.939   4.919  1.1087  0.6827 -0.6066
 3493WAT     H210691   2.345   4.833   4.922 -0.2785 -0.7643 -0.7748
 3494WAT      O10692   3.717   2.701   1.666 -0.1935 -0.4034 -0.1111
 3494WAT     H110693   3.694   2.620   1.620 -0.5663 -0.9028  0.9232
 3494WAT     H210694   3.661   2.701   1.744  1.2141 -0.1580  0.9466
 3495WAT      O10695   1.817   4.900   2.816  0.4360  0.1044  0.6493
 3495WAT     H110696   1.887   4.849   2.857  0.7401  1.6024  2.1023
 3495WAT     H210697   1.775   4.946   2.889 -1.2077  0.2933 -0.3587
 3496WAT      O10698   1.590   2.458   2.312  0.5069  0.5856 -0.7405
 3496WAT     H110699   1.654   2.518   2.350  1.2948 -0.5587 -0.1655
 3496WAT     H210700   1.638   2.375   2.303 -1.5202 -1.0895  2.0999
 3497WAT      O10701   1.261   1.951   1.482  0.3216  0.3646 -0.0304
 3497WAT     H110702   1.212   1.869   1.487 -0.2801  0.7120 -0.2202
 3497WAT     H210703   1.215   2.012   1.539  1.0388  0.4439  0.4811
 3498WAT      O10704   2.627   3.249   1.797  0.4614 -0.0556  0.2990
 3498WAT     H110705   2.572   3.299   1.857 -0.8296  0.9296 -1.6167
 3498WAT     H210706   2.631   3.162   1.836 -0.9471  0.3460  1.4386
 3499WAT      O10707   0.381   3.678   0.073 -0.6210 -0.5067  0.1770
 3499WAT     H110708   0.336   3.593   0.073 -0.3125 -0.6716 -0.1456
 3499WAT     H210709   0.471   3.658   0.046 -0.9669  0.1324 -1.5925
 3500WAT      O10710   2.809   0.019   1.547 -0.3021  0.2227 -0.4502
 3500WAT     H110711   2.872   0.006   1.476 -0.4764 -0.8944 -0.4081
 3500WAT     H210712   2.735   0.063   1.506  0.4415  1.4904 -0.5159
 3501WAT      O10713   2.557   4.769   2.109  0.3444 -0.6161  0.1695
 3501WAT     H110714   2.564   4.708   2.183  0.1941 -0.6991  0.1154
 3501WAT     H210715   2.550   4.713   2.032  1.7211 -0.5430 -0.0402
 3502WAT      O10716   2.028   3.578   5.636 -0.0902  0.8289  0.3336
 3502WAT     H110717   1.940   3.608   5.615  0.1079  1.3358  0.2045
 3502WAT     H210718   2.021   3.542   5.724  0.2013  3.7604  1.6672
 3503WAT      O10719   0.969   1.084   3.996 -0.2501 -0.0869 -0.2672
 3503WAT     H110720   0.958   1.179   4.005  0.2406 -0.0460 -0.0940
 3503WAT     H210721   0.887   1.047   4.030 -0.2398  0.2550  0.1372
 3504WAT      O10722   4.885   3.852   0.978  0.3051  0.3603 -0.1176
 3504WAT     H110723   4.948   3.855   0.906 -1.4379  0.4037 -1.7285
 3504WAT     H210724   4.869   3.759   0.992 -1.1645  0.3349 -1.5534
 3505WAT      O10725   2.274   3.352   0.505  0.2649 -0.0187 -0.3138
 3505WAT     H110726   2.189   3.366   0.465 -0.6383  0.1764  1.5780
 3505WAT     H210727   2.334   3.405   0.452 -1.0930  1.3393 -0.5639
 3506WAT      O10728   2.571   3.644   5.318  0.5916 -0.0197  0.1117
 3506WAT     H110729   2.597   3.592   5.242  0.5339  0.7972 -0.4717
 3506WAT     H210730   2.567   3.734   5.286  2.5271  0.6616  1.5427
 3507WAT      O10731   1.640   2.143   5.483  0.3021 -0.6369 -0.1665
 3507WAT     H110732   1.667   2.128   5.392 -0.8725 -1.0735 -0.4583
 3507WAT     H210733   1.722   2.149   5.532  1.0158  1.6399 -1.5491
 3508WAT      O10734   2.912   0.008   4.210 -0.3210  0.0622 -0.4627
 3508WAT     H110735   2.928   0.088   4.261  0.2605 -0.0008 -0.5413
 3508WAT     H210736   2.904   0.039   4.120 -2.0323  0.2550 -0.2650
 3509WAT      O10737   4.168   2.528   0.894  0.2099 -0.3288  0.3554
 3509WAT     H110738   4.255   2.489   0.902  1.1984  1.0649 -2.2356
 3509WAT     H210739   4.183   2.622   0.907 -0.6088  0.0823 -1.3409
 3510WAT      O10740   1.620   1.294   4.683 -0.2465  0.3300  0.2204
 3510WAT     H110741   1.609   1.378   4.728 -1.8335 -0.5252  1.5220
 3510WAT     H210742   1.574   1.306   4.600 -0.7275  0.6523  0.5262
 3511WAT      O10743   1.357   2.425   2.848 -0.1737 -0.2043  0.1551
 3511WAT     H110744   1.404   2.378   2.917 -0.8859  1.4944  1.8807
 3511WAT     H210745   1.411   2.412   2.770  2.5821  0.6652  1.7581
 3512WAT      O10746   2.252   1.961   2.825  0.2718 -0.6938  1.0372
 3512WAT     H110747   2.331   1.978   2.774 -0.9869  0.1653 -0.7200
 3512WAT     H210748   2.281   1.966   2.916  1.8965  1.6393  0.4860
 3513WAT      O10749   2.680   3.206   0.690 -0.2076 -0.1487 -0.4701
 3513WAT     H110750   2.675   3.286   0.742  1.5244  0.5803 -1.3441
 3513WAT     H210751   2.630   3.142   0.740  1.0450  0.6134  1.9127
 3514WAT      O10752   0.479   3.170   2.348  0.6659 -0.3115 -0.2218
 3514WAT     H110753   0.392   3.195   2.379  0.1704 -2.8783  0.7344
 3514WAT     H210754   0.497   3.230   2.277 -2.6416 -0.6847 -1.5828
 3515WAT      O10755   1.858   1.132   0.031  0.1028 -0.5296 -0.0115
 3515WAT     H110756   1.876   1.057  -0.026  0.7824  1.1456 -2.1383
 3515WAT     H210757   1.918   1.120   0.105 -0.4248 -2.5072  0.1594
 3516WAT      O10758   3.632   2.367   3.093 -0.3983  0.0644  0.6280
 3516WAT     H110759   3.574   2.381   3.017  0.7329  1.3554 -0.0432
 3516WAT     H210760   3.717   2.348   3.055  0.1521  0.5508  1.5829
 3517WAT      O10761   3.559   2.631   0.708 -0.4551 -0.7283  0.2181
 3517WAT     H110762   3.593   2.582   0.782 -1.6691 -1.8646  0.0618
 3517WAT     H210763   3.596   2.587   0.631 -0.0153 -0.1815  0.1041
 3518WAT      O10764   4.127   3.148   1.924 -0.1193 -0.4023 -0.1615
 3518WAT     H110765   4.213   3.175   1.959 -0.1478 -0.9211  0.3285
 3518WAT     H210766   4.138   3.055   1.906 -0.0708 -0.1167 -1.6886
 3519WAT      O10767   0.377   2.973   3.472 -0.5994  0.1703 -0.8976
 3519WAT     H110768   0.333   2.915   3.409  0.5357 -0.5248 -1.0863
 3519WAT     H210769   0.458   2.926   3.494 -0.3651  1.0158  0.0898
 3520WAT      O10770   4.117   2.619   2.210  0.0625  0.4313 -0.3577
 3520WAT     H110771   4.026   2.642   2.193  0.5889  2.8020 -0.3373
 3520WAT     H210772   4.121   2.606   2.305 -0.4897 -1.0926 -0.5100
 3521WAT      O10773   4.031   4.997   3.933 -0.4109  0.0279  0.5070
 3521WAT     H110774   4.113   5.025   3.892 -0.8298  0.9616  0.2769
 3521WAT     H210775   4.009   5.068   3.993 -0.6829 -0.5573  1.1139
 3522WAT      O10776   1.597   2.303   3.010 -0.2719  0.2606 -0.1563
 3522WAT     H110777   1.555   2.282   3.093 -0.5895 -0.6415 -0.5440
 3522WAT     H210778   1.663   2.234   2.998  0.6887  1.1218 -0.0192
 3523WAT      O10779   4.239   2.570   1.375  0.3025 -0.1374 -0.3388
 3523WAT     H110780   4.280   2.546   1.458 -0.2873 -1.2417 -0.3489
 3523WAT     H210781   4.187   2.494   1.351  0.6474  0.0689 -1.8550
 3524WAT      O10782   3.660   3.877   1.734  0.7036 -0.2944 -0.1866
 3524WAT     H110783   3.752   3.901   1.723  0.6212 -0.6921 -2.2223
 3524WAT     H210784   3.662   3.786   1.763  0.9404  0.1032  1.1007
 3525WAT      O10785   4.090   1.113   2.291 -0.3590  0.0002 -0.1615
 3525WAT     H110786   4.102   1.026   2.331 -1.6661  0.8154  2.1782
 3525WAT     H210787   4.004   1.141   2.321 -0.6317  1.4998 -2.1654
 3526WAT      O10788   2.459   4.132   0.780 -0.3075 -0.2603  0.0290
 3526WAT     H110789   2.487   4.098   0.865 -1.8491 -0.1243  0.6218
 3526WAT     H210790   2.454   4.054   0.724  0.4957 -0.3772  0.0982
 3527WAT      O10791   1.462   4.909   3.158  0.2927  0.5423  0.9794
 3527WAT     H110792   1.375   4.869   3.156  0.5923 -0.1833 -1.7486
 3527WAT     H210793   1.505   4.869   3.233 -0.6474 -1.5661  0.4706
 3528WAT      O10794   1.007   1.698   3.142  0.5261 -0.5439 -0.2402
 3528WAT     H110795   0.941   1.676   3.076 -0.7360  1.2131  0.3605
 3528WAT     H210796   1.060   1.767   3.102 -1.9508  2.5642  1.3630
 3529WAT      O10797   0.416   3.977   2.380 -0.1865 -0.0216 -0.2220
 3529WAT     H110798   0.465   3.901   2.347  2.4098  2.0546 -1.5830
 3529WAT     H210799   0.484   4.042   2.397 -2.4368  3.0747 -2.1502
 3530WAT      O10800   4.093   4.679   2.101 -0.1298 -0.1313 -0.0399
 3530WAT     H110801   4.134   4.761   2.073  0.2597 -0.4657 -0.4653
 3530WAT     H210802   4.044   4.703   2.179 -0.3338  0.5928 -0.3749
 3531WAT      O10803   3.391   4.853   0.597  0.0071 -0.4418  0.9189
 3531WAT     H110804   3.346   4.830   0.678  0.5623 -1.4925  0.9534
 3531WAT     H210805   3.458   4.916   0.624  0.3613 -0.9833  1.3455
 3532WAT      O10806   4.067   2.006   3.941  0.1501  0.2957 -0.1524
 3532WAT     H110807   4.120   1.939   3.898 -0.9256  0.0408 -1.1569
 3532WAT     H210808   4.039   2.063   3.869 -0.8762  0.4455  0.3475
 3533WAT      O10809   1.225   3.703   1.997 -0.3079  0.3898 -0.5703
 3533WAT     H110810   1.278   3.640   1.950 -0.3819  0.5386 -0.8545
 3533WAT     H210811   1.288   3.763   2.037 -0.1314 -0.9868  1.3504
 3534WAT      O10812   3.322   2.415   0.546  0.0243 -0.0106  0.3510
 3534WAT     H110813   3.245   2.397   0.491  0.9435  0.3945 -1.1156
 3534WAT     H210814   3.304   2.369   0.627 -2.4476  1.2220  0.6180
 3535WAT      O10815   4.139   2.539   2.464  0.3194  0.2844  0.1983
 3535WAT     H110816   4.231   2.545   2.488  0.6716 -0.7212 -0.7990
 3535WAT     H210817   4.124   2.445   2.452 -0.7203  0.4708 -0.0724
 3536WAT      O10818   4.288   3.204   1.165  0.1896  0.2173 -0.0897
 3536WAT     H110819   4.261   3.192   1.256 -0.2704 -1.7705 -0.4326
 3536WAT     H210820   4.359   3.267   1.169  0.3588 -0.0421  1.6799
 3537WAT      O10821   3.677   1.047   5.700  0.5912 -0.0713  0.8646
 3537WAT     H110822   3.748   1.100   5.736  2.5894 -2.1413  0.1622
 3537WAT     H210823   3.699   1.034   5.608 -0.5838 -0.9635  0.6759
 3538WAT      O10824   1.124   4.132   4.417  0.4725 -0.6933 -0.2361
 3538WAT     H110825   1.068   4.201   4.380 -0.2148 -0.6350  0.9000
 3538WAT     H210826   1.198   4.128   4.356  1.0019  1.7048  0.1521
 3539WAT      O10827   4.823   3.740   0.570 -0.1039  0.1565 -0.4766
 3539WAT     H110828   4.851   3.688   0.495 -0.1312  0.3208 -0.6026
 3539WAT     H210829   4.729   3.752   0.557 -0.3506 -0.8893  0.2526
 3540WAT      O10830   0.472   1.421   2.508  0.0218 -0.2016  0.1635
 3540WAT     H110831   0.413   1.357   2.549 -1.0808 -0.0679 -1.1457
 3540WAT     H210832   0.543   1.367   2.472 -0.4423 -0.6135 -0.1578
 3541WAT      O10833   2.481   2.204   1.285 -0.3572  0.1947  0.4438
 3541WAT     H110834   2.518   2.120   1.311 -1.0635 -0.0847  0.5634
 3541WAT     H210835   2.420   2.184   1.214  1.1669  0.8949 -1.1175
 3542WAT      O10836   0.382   3.265   1.403  0.4984 -0.3319  0.6453
 3542WAT     H110837   0.406   3.194   1.343  1.2781  2.2624 -2.3774
 3542WAT     H210838   0.287   3.275   1.391  0.6495  0.1731 -0.2176
 3543WAT      O10839   3.295   3.128   5.803  0.4227 -0.0878 -0.2336
 3543WAT     H110840   3.231   3.092   5.864 -0.3714 -0.1258 -1.0747
 3543WAT     H210841   3.365   3.063   5.800  0.7171  0.1546  1.0130
 3544WAT      O10842   3.955   3.467   2.820  0.1985 -0.3790 -0.0600
 3544WAT     H110843   3.935   3.526   2.893 -0.5485  0.0400 -0.5949
 3544WAT     H210844   4.028   3.510   2.775 -1.3977  1.0717 -1.4336
 3545WAT      O10845   2.717   3.314   4.606 -0.0935 -0.0406  0.5348
 3545WAT     H110846   2.678   3.305   4.694 -2.4950  1.6266 -0.2560
 3545WAT     H210847   2.645   3.293   4.547  1.5231 -1.2354 -1.0865
 3546WAT      O10848   2.295   3.533   0.719  0.5756 -0.3217  0.5035
 3546WAT     H110849   2.260   3.535   0.630  1.9564 -2.2793 -0.1664
 3546WAT     H210850   2.227   3.491   0.771 -0.1235  0.5816  0.3426
 3547WAT      O10851   4.593   4.426   2.754  0.3496  0.4308  0.0118
 3547WAT     H110852   4.667   4.398   2.700  1.6120  1.6086  1.0419
 3547WAT     H210853   4.607   4.384   2.839 -0.6292  0.0131 -0.0239
 3548WAT      O10854   4.810   2.261   1.037 -0.2757 -0.3194  0.2793
 3548WAT     H110855   4.740   2.267   1.102  0.1501  0.1799  0.6994
 3548WAT     H210856   4.803   2.172   1.004 -0.7626 -0.4516  0.7133
 3549WAT      O10857   0.056   3.498   4.938 -0.4072  0.3908  0.5935
 3549WAT     H110858   0.070   3.505   5.033  0.6837  0.6301  0.4352
 3549WAT     H210859   0.086   3.582   4.903  0.9110 -0.3468 -0.1228
 3550WAT      O10860   4.638   1.238   2.715  0.4044 -0.1144 -0.1026
 3550WAT     H110861   4.583   1.317   2.712  0.1641 -0.0659  2.7184
 3550WAT     H210862   4.575   1.166   2.722  0.6319 -0.2781  0.3343
 3551WAT      O10863   2.357   4.063   3.797 -0.4601  0.2217  0.0864
 3551WAT     H110864   2.352   3.979   3.752  1.0505  0.7401 -1.1468
 3551WAT     H210865   2.436   4.058   3.850  0.4167  1.3200 -1.0654
 3552WAT      O10866   3.698   0.463   0.721  0.2089  0.4770 -0.2948
 3552WAT     H110867   3.690   0.557   0.735  2.1500  0.7592 -0.8295
 3552WAT     H210868   3.673   0.450   0.630 -4.2060 -0.2057  0.7843
 3553WAT      O10869   0.302   3.314   2.823 -0.0869  0.1599 -0.4777
 3553WAT     H110870   0.338   3.294   2.737 -0.3994  0.9601 -0.8066
 3553WAT     H210871   0.277   3.229   2.860 -1.1747 -0.0901 -1.7284
 3554WAT      O10872   1.967   4.337   2.138 -0.2125  0.0872 -0.2327
 3554WAT     H110873   1.923   4.270   2.086 -0.8368 -0.3414  0.8028
 3554WAT     H210874   1.902   4.363   2.204  0.8008 -0.0093  0.8452
 3555WAT      O10875   3.916   4.387   0.520  0.1905 -0.0888 -0.1199
 3555WAT     H110876   3.934   4.401   0.427  0.7588  1.3980  0.1852
 3555WAT     H210877   3.971   4.312   0.543  0.1144 -0.4133 -0.9624
 3556WAT      O10878   1.254   3.772   3.917  0.0433  0.1991 -0.5175
 3556WAT     H110879   1.160   3.788   3.925  0.2086  0.8659  0.1902
 3556WAT     H210880   1.286   3.770   4.007  0.3260 -2.5567 -0.5931
 3557WAT      O10881   1.369   2.774   4.353 -0.3712 -0.2975 -0.6040
 3557WAT     H110882   1.370   2.693   4.403 -1.6794 -0.3956 -0.7011
 3557WAT     H210883   1.359   2.843   4.419  1.8542 -0.0831 -0.4172
 3558WAT      O10884   1.912   3.758   0.973  0.1246  0.2902 -0.1669
 3558WAT     H110885   1.929   3.668   0.945  0.2650  0.3208 -0.1798
 3558WAT     H210886   1.850   3.792   0.909  1.3216  0.7421 -1.1278
 3559WAT      O10887   0.076   1.565   1.019  0.3629  0.3975 -0.0951
 3559WAT     H110888   0.156   1.601   0.981  0.6464  0.5774  0.6446
 3559WAT     H210889   0.076   1.473   0.995  0.0289  0.7023 -1.3530
 3560WAT      O10890   4.836   3.320   5.821  0.3861  0.4157  0.5825
 3560WAT     H110891   4.840   3.369   5.739 -2.8925  0.7504  0.5123
 3560WAT     H210892   4.826   3.386   5.889 -1.4287  0.0360  0.7407
 3561WAT      O10893   4.470   1.367   0.263  0.1915 -0.7474 -0.6287
 3561WAT     H110894   4.456   1.274   0.278  0.3616 -0.9749 -1.8038
 3561WAT     H210895   4.382   1.406   0.272  0.5021 -0.5090  2.8563
 3562WAT      O10896   4.465   3.592   4.562  0.9709  0.6355  0.1838
 3562WAT     H110897   4.455   3.545   4.479  0.4818  1.2942 -0.1416
 3562WAT     H210898   4.503   3.528   4.622  1.1797  0.1051 -0.5083
 3563WAT      O10899   4.652   3.145   3.355 -0.4018 -0.0062  0.4865
 3563WAT     H110900   4.573   3.200   3.354 -0.2984  0.1393 -0.1622
 3563WAT     H210901   4.623   3.061   3.318 -0.0861  0.2895 -0.4447
 3564WAT      O10902   3.449   4.146   5.233 -0.1516 -0.3472  0.7430
 3564WAT     H110903   3.433   4.197   5.153  1.3556 -0.4284  0.3660
 3564WAT     H210904   3.375   4.085   5.237 -0.4041 -0.1444 -0.4418
 3565WAT      O10905   2.375   3.114   4.625 -0.2755 -0.4143  0.1327
 3565WAT     H110906   2.417   3.178   4.567 -2.1386  0.2728 -0.5311
 3565WAT     H210907   2.285   3.107   4.593 -0.7155 -1.8086  1.5041
 3566WAT      O10908   0.039   3.817   0.739 -0.3892  0.2290  0.2178
 3566WAT     H110909  -0.036   3.765   0.710 -0.5203  0.4012  0.2407
 3566WAT     H210910   0.072   3.857   0.658  1.1099 -1.6584 -0.1579
 3567WAT      O10911   0.687   1.461   2.874 -0.5272  0.1028 -0.3765
 3567WAT     H110912   0.773   1.457   2.915 -0.8391  1.0319  0.4210
 3567WAT     H210913   0.684   1.547   2.832 -0.9710 -0.0130 -0.5835
 3568WAT      O10914   3.531   5.560   0.143  0.2467  0.4286 -0.0353
 3568WAT     H110915   3.468   5.631   0.137 -0.2635  0.3171  2.6509
 3568WAT     H210916   3.478   5.482   0.162  0.9840 -0.1765 -0.3992
 3569WAT      O10917   3.749   3.518   2.356  0.4395 -0.5182  0.1512
 3569WAT     H110918   3.658   3.505   2.381  0.1315 -2.6534 -1.6477
 3569WAT     H210919   3.800   3.483   2.429 -0.2063 -0.3785  0.6722
 3570WAT      O10920   2.245   0.560   3.231 -0.5489  0.4034 -0.3296
 3570WAT     H110921   2.166   0.508   3.217 -0.3338  0.0831 -0.3684
 3570WAT     H210922   2.311   0.518   3.175  0.4891 -1.2447  1.9677
 3571WAT      O10923   4.952   3.152   2.187 -0.5820 -0.2739 -0.5162
 3571WAT     H110924   4.947   3.240   2.149 -0.0946 -0.0538 -0.0719
 3571WAT     H210925   4.945   3.093   2.111 -0.1744  0.1579 -0.8919
 3572WAT      O10926   3.078   2.620   4.702  0.3517 -0.4388  0.2994
 3572WAT     H110927   3.085   2.682   4.629  1.5150  0.8976  1.4873
 3572WAT     H210928   3.112   2.668   4.777 -1.3950 -1.5539  1.8829
 3573WAT      O10929   3.731   3.774   4.631 -0.2497  0.3479  0.1438
 3573WAT     H110930   3.668   3.845   4.619  0.0122  0.9354  1.9621
 3573WAT     H210931   3.721   3.748   4.723  1.2931 -0.3745  0.1367
 3574WAT      O10932   3.840   3.345   3.706  0.0054  0.8341  0.5237
 3574WAT     H110933   3.936   3.344   3.705  0.0132  0.4672 -1.2422
 3574WAT     H210934   3.816   3.253   3.700 -0.4197  1.0157 -0.9076
 3575WAT      O10935   1.898   2.496   4.561 -0.1792  0.0715 -0.3330
 3575WAT     H110936   1.984   2.505   4.602 -0.0577 -0.2442 -0.5190
 3575WAT     H210937   1.877   2.584   4.530  0.1388  0.1190 -0.4139
 3576WAT      O10938   4.077   0.912   3.832  0.1019  0.2803 -0.0541
 3576WAT     H110939   4.110   0.966   3.903 -1.3036  1.0367  0.0526
 3576WAT     H210940   3.984   0.932   3.827  0.0156 -0.3164 -1.6148
 3577WAT      O10941   1.379   3.106   1.675  0.3640  0.2277 -0.1194
 3577WAT     H110942   1.337   3.020   1.682 -0.2324  0.5059 -0.1735
 3577WAT     H210943   1.361   3.135   1.585 -1.4062  1.3780  0.5541
 3578WAT      O10944   3.106   1.263   5.814  0.2269 -0.0167  0.7840
 3578WAT     H110945   3.126   1.173   5.788  1.4870  0.3993  0.2251
 3578WAT     H210946   3.190   1.309   5.808 -0.4164  1.2222  0.9358
 3579WAT      O10947   1.198   3.008   3.231 -0.2829  0.9781 -0.7730
 3579WAT     H110948   1.111   3.048   3.229 -1.2747 -1.0326 -0.4974
 3579WAT     H210949   1.189   2.934   3.291  1.2531 -0.0915 -1.7904
 3580WAT      O10950   0.760   1.443   5.791  0.1346  0.0599 -0.4101
 3580WAT     H110951   0.802   1.495   5.860 -1.2082  1.6498 -0.7239
 3580WAT     H210952   0.810   1.463   5.712  0.5446 -0.3204 -0.2499
 3581WAT      O10953   1.126   1.709   1.514 -0.5226  0.7255 -0.7866
 3581WAT     H110954   1.040   1.672   1.494 -0.2076 -0.7178  0.4585
 3581WAT     H210955   1.188   1.655   1.465 -0.0280 -0.7056  1.3348
 3582WAT      O10956   1.477   2.518   3.614  0.0935 -1.0072 -0.2349
 3582WAT     H110957   1.532   2.566   3.552 -1.2201 -0.6877 -1.1936
 3582WAT     H210958   1.445   2.585   3.674  1.9755 -1.4210  1.3438
 3583WAT      O10959   0.306   4.215   4.982  0.0193 -0.3628  0.4135
 3583WAT     H110960   0.246   4.217   5.057 -0.9103 -0.5438 -0.3104
 3583WAT     H210961   0.252   4.187   4.909  1.1478 -1.2141 -0.1316
 3584WAT      O10962   1.437   2.479   1.364  0.4920 -0.3928 -0.1481
 3584WAT     H110963   1.464   2.413   1.300  1.0181  0.5340 -0.9199
 3584WAT     H210964   1.351   2.507   1.334 -0.0070 -1.1660  0.5423
 3585WAT      O10965   4.460   1.654   0.995 -0.5942 -0.2412 -0.1982
 3585WAT     H110966   4.389   1.621   1.050 -3.2695 -1.7222 -4.1079
 3585WAT     H210967   4.429   1.739   0.965 -0.7105 -0.8024 -1.7684
 3586WAT      O10968   3.204   2.783   0.092 -0.4844 -0.0125  0.6195
 3586WAT     H110969   3.209   2.786  -0.003  0.1209 -1.7129  0.5655
 3586WAT     H210970   3.281   2.832   0.122 -0.2663 -0.1159  0.2260
 3587WAT      O10971   0.079   1.420   1.432 -0.1745  0.1514  0.0500
 3587WAT     H110972   0.153   1.386   1.481  0.0604  0.8406  0.1780
 3587WAT     H210973   0.082   1.515   1.446 -1.2557  0.1607  0.3076
 3588WAT      O10974   2.317   0.279   0.080  0.6477  0.4540  0.4473
 3588WAT     H110975   2.376   0.211   0.048  0.7711  1.1789 -0.9416
 3588WAT     H210976   2.347   0.360   0.037 -0.7398  1.0150  0.4597
 3589WAT      O10977   3.438   1.391   1.442 -0.1984 -0.1088 -0.0004
 3589WAT     H110978   3.428   1.481   1.471  1.5705  0.2474 -0.3407
 3589WAT     H210979   3.419   1.338   1.519  1.3561  0.6837  0.9883
 3590WAT      O10980   3.348   2.762   2.534 -0.1889  0.5281 -0.5830
 3590WAT     H110981   3.380   2.845   2.569  1.6269 -0.5831  0.5380
 3590WAT     H210982   3.277   2.737   2.593  0.5674  0.3533  0.2769
 3591WAT      O10983   3.529   4.313   0.196 -0.3703 -0.0304  0.8048
 3591WAT     H110984   3.512   4.371   0.121 -2.8979  0.3395  1.5612
 3591WAT     H210985   3.456   4.251   0.195  1.9497 -2.9625  0.3574
 3592WAT      O10986   2.073   0.490   2.488 -0.4715  0.1589  0.1712
 3592WAT     H110987   2.070   0.398   2.463  0.1897  0.1942 -0.0644
 3592WAT     H210988   2.007   0.498   2.557 -1.6006 -0.1550 -0.8350
 3593WAT      O10989   3.199   5.540   0.646 -0.3045 -0.1604 -0.3180
 3593WAT     H110990   3.211   5.609   0.580  0.2318  0.2570  0.1965
 3593WAT     H210991   3.159   5.468   0.598  1.3444 -0.3948 -1.4438
 3594WAT      O10992   1.210   3.446   0.690  0.1387  0.1296  0.2461
 3594WAT     H110993   1.220   3.487   0.604 -1.3172 -0.0469 -0.0336
 3594WAT     H210994   1.294   3.462   0.734  0.2150  1.9504 -0.4757
 3595WAT      O10995   0.206   1.528   0.567  0.2293 -0.0141 -0.5007
 3595WAT     H110996   0.185   1.512   0.475 -0.8757 -1.3665 -0.0491
 3595WAT     H210997   0.121   1.536   0.610  0.6807 -1.1013  0.6712
 3596WAT      O10998   2.336   0.792   2.138  0.3770  0.1947  0.3406
 3596WAT     H110999   2.273   0.750   2.196  0.0983  0.3173  0.1251
 3596WAT     H211000   2.339   0.735   2.061 -0.5527  0.9552 -0.2725
 3597WAT      O11001   3.359   3.486   0.721 -0.1323 -0.1144  0.2133
 3597WAT     H111002   3.305   3.481   0.800 -0.8786  0.4474 -0.2525
 3597WAT     H211003   3.312   3.435   0.656  0.0862  0.0628 -0.0867
 3598WAT      O11004   3.932   4.674   1.399 -0.1188 -0.6186 -0.3719
 3598WAT     H111005   3.874   4.718   1.461 -0.1701 -2.3622  0.9151
 3598WAT     H211006   3.873   4.627   1.340 -0.0433  0.1163 -1.0518
 3599WAT      O11007   2.142   4.078   1.858  0.0426 -0.3396  0.1018
 3599WAT     H111008   2.182   3.992   1.876  0.0192 -1.2668 -3.5121
 3599WAT     H211009   2.212   4.130   1.820 -0.2174  0.9746  1.3131
 3600WAT      O11010   2.370   3.375   3.255 -0.0367 -0.5582  0.1391
 3600WAT     H111011   2.436   3.438   3.226 -0.5080  0.3170  0.8865
 3600WAT     H211012   2.392   3.357   3.347 -0.1110 -1.2193  0.0315
 3601WAT      O11013   0.272   1.763   2.719 -0.2618  0.0150  0.6900
 3601WAT     H111014   0.251   1.856   2.713  0.3188  0.0627 -1.6789
 3601WAT     H211015   0.259   1.730   2.631 -0.0582 -2.0890  1.3902
 3602WAT      O11016   1.967   2.265   0.934  0.0607 -0.3423  0.2227
 3602WAT     H111017   1.950   2.184   0.887  0.3419 -0.3113  0.0644
 3602WAT     H211018   1.883   2.310   0.937  0.3431  0.4340 -1.7064
 3603WAT      O11019   3.068   2.162   1.153  0.0470  0.2803 -0.4077
 3603WAT     H111020   2.998   2.193   1.211 -0.3536  1.7494 -1.6079
 3603WAT     H211021   3.029   2.162   1.066  1.1300 -0.2463 -0.9073
 3604WAT      O11022   3.938   3.179   0.882  0.0270  0.3890  0.0986
 3604WAT     H111023   3.910   3.264   0.916  1.6277  0.5118  1.2042
 3604WAT     H211024   3.861   3.145   0.836 -0.9105  2.0394  0.3808
 3605WAT      O11025   1.831   0.708   5.243 -0.7885  0.2998  0.1093
 3605WAT     H111026   1.793   0.657   5.172 -2.3757  0.0891  1.0608
 3605WAT     H211027   1.763   0.771   5.267  1.1792  3.0898 -1.1699
 3606WAT      O11028   0.531   2.480   3.072 -0.2190 -0.0176 -0.9154
 3606WAT     H111029   0.519   2.387   3.056 -1.4420 -0.0718  0.2253
 3606WAT     H211030   0.626   2.492   3.073  0.0588 -1.7294  1.4623
 3607WAT      O11031   2.582   3.719   4.730  0.0769 -0.5655  0.6843
 3607WAT     H111032   2.651   3.683   4.674  0.7089  1.8477 -0.2011
 3607WAT     H211033   2.510   3.738   4.670 -0.0082  0.1621  1.0002
 3608WAT      O11034   3.027   0.164   4.814  0.4309 -0.0401  0.1285
 3608WAT     H111035   3.068   0.136   4.732  1.7845  1.0406  0.3962
 3608WAT     H211036   2.975   0.241   4.790  1.2262  0.5793  0.3477
 3609WAT      O11037   0.181   1.857   3.199 -0.1505  0.1663 -0.1009
 3609WAT     H111038   0.257   1.799   3.194 -0.4120 -0.2123  0.2739
 3609WAT     H211039   0.207   1.934   3.148  0.4106 -0.0414 -0.1410
 3610WAT      O11040   3.757   4.385   0.767 -0.1662 -0.6224 -0.5782
 3610WAT     H111041   3.676   4.436   0.759 -0.1115 -0.3984  0.1787
 3610WAT     H211042   3.800   4.396   0.682 -0.8119 -0.5490 -0.9093
 3611WAT      O11043   4.598   2.765   1.459 -0.1982  0.7164  0.2251
 3611WAT     H111044   4.564   2.685   1.500  0.3695 -0.2074 -1.0338
 3611WAT     H211045   4.683   2.739   1.424 -0.1878  1.7609 -0.5650
 3612WAT      O11046   3.260   4.355   5.064  0.5906 -0.3575  0.9413
 3612WAT     H111047   3.349   4.354   5.031  0.3294 -1.3332  0.2073
 3612WAT     H211048   3.266   4.398   5.149  1.5160  0.9034  0.2702
 3613WAT      O11049   0.602   1.726   0.317  0.1481 -1.1256  0.1145
 3613WAT     H111050   0.590   1.712   0.223 -0.5154  0.2343 -0.0317
 3613WAT     H211051   0.659   1.803   0.323 -0.6469 -0.5632  0.7944
 3614WAT      O11052   1.521   1.517   4.862 -0.1583 -0.2772  0.2286
 3614WAT     H111053   1.489   1.578   4.796 -0.5577 -0.0491  0.6333
 3614WAT     H211054   1.474   1.540   4.942  0.3245 -0.5495  0.5983
 3615WAT      O11055   0.278   2.183   1.931  0.0403 -0.3565  0.0392
 3615WAT     H111056   0.191   2.144   1.945  0.5947 -1.2252  1.2521
 3615WAT     H211057   0.326   2.163   2.011  0.8652  1.5371  0.0578
 3616WAT      O11058   0.330   1.329   1.544  0.2719  0.2307  0.5160
 3616WAT     H111059   0.355   1.288   1.627  0.9504  0.4857  0.4432
 3616WAT     H211060   0.400   1.391   1.526  0.4970 -0.3293 -0.6060
 3617WAT      O11061   0.049   2.857   0.396  0.3425  0.2293 -0.4259
 3617WAT     H111062   0.043   2.831   0.304  0.5169 -0.7932 -0.1715
 3617WAT     H211063  -0.024   2.918   0.409 -2.1750 -2.5549 -0.3452
 3618WAT      O11064   4.920   2.746   5.522 -0.0940  0.9032 -0.2219
 3618WAT     H111065   4.979   2.797   5.578  0.7433 -1.3265  1.0469
 3618WAT     H211066   4.834   2.758   5.562  0.2136  0.7690  0.5146
 3619WAT      O11067   1.872   5.248   5.771 -0.4211  0.0756  0.3412
 3619WAT     H111068   1.925   5.325   5.748 -0.1880 -0.7586 -2.2217
 3619WAT     H211069   1.853   5.260   5.864  1.6865  1.9679  0.6430
 3620WAT      O11070   4.670   3.125   4.801 -0.2827  0.2044 -1.1771
 3620WAT     H111071   4.641   3.214   4.784  0.3310  0.4881 -0.7822
 3620WAT     H211072   4.726   3.133   4.878 -2.1978 -0.8650  0.4445
 3621WAT      O11073   1.545   1.060   3.739  0.1892  0.3280  0.1872
 3621WAT     H111074   1.498   0.983   3.707 -0.5185  1.3779 -1.4511
 3621WAT     H211075   1.615   1.073   3.676  0.7738  0.6007  0.8800
 3622WAT      O11076   1.839   0.190   4.867  0.4205 -0.4969 -0.3678
 3622WAT     H111077   1.916   0.154   4.822  1.3357 -0.4199  1.0869
 3622WAT     H211078   1.848   0.285   4.857  0.2944 -0.5040 -0.5484
 3623WAT      O11079   0.207   2.495   0.957 -0.0789  0.5195 -0.4253
 3623WAT     H111080   0.256   2.569   0.992  2.4813 -2.0790  1.9346
 3623WAT     H211081   0.120   2.503   0.997  0.3851  1.7938  0.3896
 3624WAT      O11082   2.090   3.061   4.497  0.0543 -0.0350 -0.3765
 3624WAT     H111083   2.059   3.151   4.495  0.1192  0.0747  1.3692
 3624WAT     H211084   2.065   3.029   4.584 -1.3285 -2.2086 -1.4806
 3625WAT      O11085   0.077   2.188   4.955 -0.1800 -0.2386 -0.0414
 3625WAT     H111086   0.143   2.142   5.007  0.7523 -0.2272 -1.1892
 3625WAT     H211087   0.011   2.215   5.020  0.3961 -1.1666  0.9776
 3626WAT      O11088   4.359   2.766   1.252  0.4475  0.0364 -0.2599
 3626WAT     H111089   4.289   2.705   1.277  1.8849 -2.1550 -1.2902
 3626WAT     H211090   4.427   2.752   1.318  1.7673 -1.3231 -1.8158
 3627WAT      O11091   1.606   4.229   4.338  0.1350 -0.0139  0.6170
 3627WAT     H111092   1.569   4.300   4.287 -1.7216 -1.1308  0.3123
 3627WAT     H211093   1.682   4.268   4.383 -0.8259  2.1255  0.4842
 3628WAT      O11094   4.972   2.085   2.564 -0.0070  0.1772  0.4196
 3628WAT     H111095   4.928   2.015   2.515  0.8584 -0.8112  1.0174
 3628WAT     H211096   4.902   2.124   2.616 -0.6041  0.1105 -0.3128
 3629WAT      O11097   2.042   2.487   0.617 -0.4350 -0.4884 -0.1428
 3629WAT     H111098   1.974   2.455   0.558 -0.4595 -0.2316 -0.2547
 3629WAT     H211099   2.013   2.575   0.641 -0.6041 -0.7210  0.5302
 3630WAT      O11100   0.949   3.391   0.355 -0.7956 -0.5439 -0.0832
 3630WAT     H111101   0.893   3.318   0.329 -1.2278  0.0270 -0.7759
 3630WAT     H211102   0.922   3.411   0.445 -1.4946 -0.4814 -0.3006
 3631WAT      O11103   4.488   2.843   4.801 -0.2658  0.3546  0.0378
 3631WAT     H111104   4.522   2.761   4.837  0.5046  1.2747  1.4874
 3631WAT     H211105   4.548   2.910   4.833 -0.1335  1.3741 -2.1721
 3632WAT      O11106   1.233   2.508   2.089 -0.2616  0.0987 -0.2157
 3632WAT     H111107   1.138   2.506   2.079 -0.3586 -0.8731  0.7590
 3632WAT     H211108   1.250   2.468   2.174  1.0337  0.1860 -0.4002
 3633WAT      O11109   2.548   2.303   3.499  0.1007  0.1981 -0.0525
 3633WAT     H111110   2.562   2.266   3.412  0.4217 -0.9328  0.4709
 3633WAT     H211111   2.574   2.395   3.490 -1.8599  0.6674 -1.6846
 3634WAT      O11112   1.417   1.273   5.540  0.4662 -0.4397  0.1163
 3634WAT     H111113   1.493   1.270   5.483  1.0652 -0.5095  0.9071
 3634WAT     H211114   1.432   1.204   5.604  0.6459  0.7163  1.3809
 3635WAT      O11115   4.912   2.411   4.256  0.5031  0.0268  0.2197
 3635WAT     H111116   4.911   2.390   4.162  2.2495 -4.7192  0.9600
 3635WAT     H211117   4.821   2.404   4.283  0.1346  0.2586 -0.9057
 3636WAT      O11118   1.066   2.004   4.437 -0.2279 -0.0757 -0.0620
 3636WAT     H111119   1.079   1.961   4.352 -0.2425  1.5281 -0.9109
 3636WAT     H211120   0.973   2.024   4.439  0.1029  1.6341 -0.5597
 3637WAT      O11121   0.181   1.937   1.589  0.1445  0.3365  0.0652
 3637WAT     H111122   0.255   1.991   1.619  0.0815  0.2588  0.3600
 3637WAT     H211123   0.163   1.969   1.500 -0.8846  1.8697  0.7695
 3638WAT      O11124   2.460   1.818   0.694 -0.6317  0.1886 -0.3560
 3638WAT     H111125   2.378   1.824   0.646 -0.9308 -0.5242  0.0523
 3638WAT     H211126   2.519   1.878   0.649 -0.4551 -1.5259 -2.5374
 3639WAT      O11127   2.005   0.491   5.457  0.0442 -0.2315  0.3425
 3639WAT     H111128   2.017   0.519   5.367 -3.3174  0.9516  0.1108
 3639WAT     H211129   2.090   0.502   5.498  0.8497  2.5804 -1.8173
 3640WAT      O11130   1.654   1.833   4.972 -0.6169 -0.0951  0.1394
 3640WAT     H111131   1.578   1.776   4.984 -1.6406  1.1346 -0.3054
 3640WAT     H211132   1.617   1.920   4.957  0.8299  0.3110 -1.4089
 3641WAT      O11133   4.493   3.706   2.062 -0.2912  0.2709  0.1451
 3641WAT     H111134   4.481   3.614   2.036 -0.0835  0.2383  0.1620
 3641WAT     H211135   4.405   3.744   2.057 -0.2860  0.2186 -0.4270
 3642WAT      O11136   3.152   0.519   4.580  0.7685 -0.4382 -0.0536
 3642WAT     H111137   3.207   0.484   4.650  0.5156  2.0192  1.4813
 3642WAT     H211138   3.065   0.527   4.620 -0.2492 -2.0627 -1.7313
 3643WAT      O11139   3.441   1.368   0.518 -0.1180  0.3015  0.2135
 3643WAT     H111140   3.401   1.350   0.603  0.0180  0.9108  0.4136
 3643WAT     H211141   3.435   1.463   0.509  0.1182  0.2670 -0.3364
 3644WAT      O11142   3.221   0.629   0.251 -0.1784 -0.5332  0.2133
 3644WAT     H111143   3.201   0.644   0.159 -0.8285 -2.2459  0.0409
 3644WAT     H211144   3.137   0.638   0.296  0.1896  0.6042  0.6977
 3645WAT      O11145   0.113   1.429   4.288  0.4171  0.1974  0.0291
 3645WAT     H111146   0.063   1.407   4.367  0.2577  1.8091  0.4066
 3645WAT     H211147   0.191   1.475   4.321  0.0468  1.4321 -0.7653
 3646WAT      O11148   4.828   4.114   1.278  0.0463 -0.0753  0.3526
 3646WAT     H111149   4.915   4.128   1.315 -0.1846 -0.6466  1.1463
 3646WAT     H211150   4.836   4.141   1.187  0.5105  1.9000  0.9251
 3647WAT      O11151   1.995   4.119   3.584 -0.1128  0.1962 -0.3594
 3647WAT     H111152   1.968   4.150   3.498 -1.0874  0.0980 -0.0953
 3647WAT     H211153   2.044   4.192   3.621  0.4455  0.1878 -1.0444
 3648WAT      O11154   4.891   3.062   5.591  0.2767  0.0548 -0.0254
 3648WAT     H111155   4.885   3.078   5.685 -4.3141 -2.6607  0.4260
 3648WAT     H211156   4.960   2.997   5.581 -0.4815 -1.1102  1.8419
 3649WAT      O11157   1.848   5.041   0.331  0.1182 -0.1556  0.6210
 3649WAT     H111158   1.830   4.954   0.366 -1.0190  0.4398  1.6045
 3649WAT     H211159   1.943   5.051   0.337  0.0943 -0.6561  2.1734
 3650WAT      O11160   4.860   2.287   5.433  0.1723  0.2759 -0.5900
 3650WAT     H111161   4.809   2.213   5.466  0.7619 -0.2490 -0.8478
 3650WAT     H211162   4.796   2.341   5.387 -0.6283  0.9120  1.1995
 3651WAT      O11163   3.181   1.157   2.227 -0.4770  0.0876 -0.1466
 3651WAT     H111164   3.141   1.189   2.146  1.2207  0.0703 -1.0329
 3651WAT     H211165   3.250   1.221   2.247  0.1344 -0.7204  0.4373
 3652WAT      O11166   3.907   0.654   5.415 -0.3854 -0.3247 -0.7980
 3652WAT     H111167   3.975   0.598   5.453 -0.2010  0.1664 -0.4047
 3652WAT     H211168   3.922   0.740   5.453 -0.2935  0.1503 -1.8666
 3653WAT      O11169   1.883   4.790   1.437 -0.5729 -0.2087  0.5845
 3653WAT     H111170   1.831   4.716   1.467 -0.3298 -0.3100  0.7599
 3653WAT     H211171   1.929   4.821   1.515  0.5126 -0.8355  0.2105
 3654WAT      O11172   2.541   0.672   4.723  0.6824  0.3282 -0.1358
 3654WAT     H111173   2.503   0.616   4.791  0.9906  1.2738  0.8440
 3654WAT     H211174   2.596   0.613   4.671 -1.3970 -0.9046 -1.0707
 3655WAT      O11175   2.722   0.601   0.722  0.1207  0.3719  0.0699
 3655WAT     H111176   2.746   0.509   0.731  0.4919  0.5020  0.4579
 3655WAT     H211177   2.777   0.646   0.787  0.7780  0.9931 -0.8867
 3656WAT      O11178   3.274   2.452   0.235  0.3603  0.8462 -0.0037
 3656WAT     H111179   3.293   2.506   0.159  1.6989 -1.4937 -1.4366
 3656WAT     H211180   3.360   2.428   0.270 -0.1930 -0.0598  0.7799
 3657WAT      O11181   2.555   4.373   3.303 -0.3739  0.5135  0.0458
 3657WAT     H111182   2.641   4.384   3.262 -1.5064  1.9552 -2.1869
 3657WAT     H211183   2.505   4.449   3.274 -2.4336 -0.2968  1.2350
 3658WAT      O11184   1.825   1.407   5.499 -0.1464  0.4420 -0.0344
 3658WAT     H111185   1.876   1.426   5.420 -0.6320 -0.0343 -0.4731
 3658WAT     H211186   1.891   1.387   5.566  0.2672  0.7490 -0.3435
 3659WAT      O11187   3.824   5.468   3.679  0.1520 -0.0423 -0.3985
 3659WAT     H111188   3.748   5.520   3.655 -0.0234 -0.5944 -1.0650
 3659WAT     H211189   3.788   5.386   3.712  0.4622 -0.3366 -0.7906
 3660WAT      O11190   4.360   2.527   2.609 -0.2162  0.3368  0.3342
 3660WAT     H111191   4.368   2.622   2.596  1.7708  0.4954  2.0705
 3660WAT     H211192   4.442   2.492   2.575 -0.4281 -0.6056  0.7697
 3661WAT      O11193   0.332   4.076   5.527 -0.0422 -0.0551  0.2321
 3661WAT     H111194   0.333   3.989   5.567 -1.7446  0.6416  1.9294
 3661WAT     H211195   0.385   4.130   5.586  1.2640  0.0436 -0.9729
 3662WAT      O11196   2.396   1.874   5.389 -0.8099 -0.0894 -0.0424
 3662WAT     H111197   2.455   1.931   5.439 -1.8458 -0.1100  1.2387
 3662WAT     H211198   2.390   1.794   5.442  0.6734 -1.4861 -1.8405
 3663WAT      O11199   0.756   2.677   4.805 -0.5249 -0.4490  0.0295
 3663WAT     H111200   0.673   2.631   4.795 -1.9620  1.7820  0.9430
 3663WAT     H211201   0.775   2.711   4.717 -2.3752  1.7704  0.3809
 3664WAT      O11202   4.330   1.989   4.827  0.0524 -0.5265 -0.1284
 3664WAT     H111203   4.407   1.971   4.880  1.7544  0.9517 -1.9329
 3664WAT     H211204   4.298   1.903   4.801  0.7181 -1.1860  1.1427
 3665WAT      O11205   1.924   5.458   4.275 -0.1333  0.1377 -0.2108
 3665WAT     H111206   1.932   5.367   4.245  2.3503  0.3172 -0.3048
 3665WAT     H211207   1.943   5.510   4.197 -0.0943  0.7072  0.1746
 3666WAT      O11208   2.118   0.360   3.795 -0.6779  0.1373  0.3863
 3666WAT     H111209   2.189   0.317   3.747 -0.4643 -0.8168  1.5124
 3666WAT     H211210   2.161   0.433   3.841 -1.2207  2.4092 -2.3995
 3667WAT      O11211   1.843   3.342   0.853 -0.2090  0.2321 -0.6394
 3667WAT     H111212   1.913   3.381   0.906  1.5031 -1.3693 -1.5946
 3667WAT     H211213   1.884   3.266   0.812 -2.1632  0.0012 -2.3208
 3668WAT      O11214   3.954   1.501   0.487 -0.0624  0.3585  0.0854
 3668WAT     H111215   3.956   1.580   0.540 -0.6188 -0.1578  0.8963
 3668WAT     H211216   4.004   1.524   0.409  4.3640 -0.0712  2.4783
 3669WAT      O11217   3.808   1.082   3.467  0.2192  0.0799 -0.0330
 3669WAT     H111218   3.725   1.099   3.511  1.4108  1.5737  1.8436
 3669WAT     H211219   3.787   1.022   3.396 -2.6748  1.5011 -0.4978
 3670WAT      O11220   3.286   1.280   1.064  0.3320  0.6417 -0.1766
 3670WAT     H111221   3.349   1.213   1.036 -0.0266 -0.2468  1.0518
 3670WAT     H211222   3.273   1.335   0.987  2.8191  1.0355 -0.4195
 3671WAT      O11223   3.437   2.873   0.202  0.5063  0.6553  0.1169
 3671WAT     H111224   3.503   2.940   0.218  1.5928 -0.5857  1.1529
 3671WAT     H211225   3.426   2.830   0.287 -1.6277  0.7863 -0.0438
 3672WAT      O11226   1.033   4.291   2.119 -0.0406  0.0386  0.5069
 3672WAT     H111227   0.975   4.357   2.156 -0.8696  0.1613 -0.9457
 3672WAT     H211228   1.096   4.273   2.188 -0.7465  1.2019  1.4845
 3673WAT      O11229   2.029   1.979   2.356  0.2475 -0.4117 -0.2468
 3673WAT     H111230   1.944   1.938   2.341 -0.3160  0.4028  0.5427
 3673WAT     H211231   2.085   1.907   2.385 -0.1818 -0.9590 -0.7550
 3674WAT      O11232   0.222   3.393   4.163  0.5483 -0.1812 -0.7137
 3674WAT     H111233   0.304   3.439   4.181  0.4238 -0.6004  1.1392
 3674WAT     H211234   0.154   3.455   4.190  0.2101  0.2272 -2.3836
 3675WAT      O11235   4.744   1.224   3.712 -0.0652 -0.4678  1.2224
 3675WAT     H111236   4.782   1.276   3.783  1.0930 -1.2222  1.1870
 3675WAT     H211237   4.688   1.285   3.664  1.2519  0.7487  1.1724
 3676WAT      O11238   1.341   1.601   5.353  0.3610  0.6594 -0.0954
 3676WAT     H111239   1.436   1.606   5.367  0.3160 -1.3982  1.2156
 3676WAT     H211240   1.303   1.653   5.424  0.4702 -0.2403  0.6362
 3677WAT      O11241   0.473   1.530   1.414  0.3615  0.1210 -0.9330
 3677WAT     H111242   0.449   1.475   1.340 -0.5775 -0.0098 -0.5386
 3677WAT     H211243   0.411   1.603   1.411  0.8322  0.5353 -0.7424
 3678WAT      O11244   4.097   3.064   0.126  0.5574 -0.5627  0.0164
 3678WAT     H111245   4.051   3.130   0.074  2.2620  0.5797 -0.1569
 3678WAT     H211246   4.034   3.036   0.192 -0.5280  0.5434 -0.5188
 3679WAT      O11247   3.978   3.822   3.045  0.7891  0.3013 -0.1097
 3679WAT     H111248   3.929   3.854   2.970  0.5767 -0.0980 -0.1478
 3679WAT     H211249   3.960   3.885   3.115  0.8506  0.5785 -0.3422
 3680WAT      O11250   3.531   1.060   4.091 -0.0646  0.0055 -0.8307
 3680WAT     H111251   3.571   0.974   4.108 -2.1940 -0.9168 -0.1196
 3680WAT     H211252   3.588   1.122   4.136  0.6023 -1.2251  0.0865
 3681WAT      O11253   1.150   4.169   2.345 -0.0609 -0.1799 -0.3745
 3681WAT     H111254   1.147   4.202   2.434 -0.8801 -0.6404 -0.2183
 3681WAT     H211255   1.224   4.109   2.343  0.5795  0.5900 -0.2881
 3682WAT      O11256   2.072   0.665   4.049  0.4243 -0.0090  0.1267
 3682WAT     H111257   2.042   0.611   4.122  1.3700 -1.0864 -0.2489
 3682WAT     H211258   2.157   0.628   4.025  0.1030  0.2688 -1.5813
 3683WAT      O11259   3.419   0.345   2.580  0.1864 -0.0047  0.4673
 3683WAT     H111260   3.501   0.394   2.565 -1.7282  3.0575 -1.0606
 3683WAT     H211261   3.385   0.380   2.662 -0.5525  0.2947  0.0458
 3684WAT      O11262   4.901   3.794   1.258 -0.0453  0.5905  0.3852
 3684WAT     H111263   4.896   3.854   1.183  0.4357  1.4335  1.0149
 3684WAT     H211264   4.993   3.795   1.283 -0.0352 -0.4149  0.4127
 3685WAT      O11265   3.307   0.473   2.806 -0.3178 -0.1532 -0.2269
 3685WAT     H111266   3.363   0.516   2.871  1.2674 -0.8985 -1.0519
 3685WAT     H211267   3.256   0.410   2.857  0.1511 -0.0062  0.4350
 3686WAT      O11268   3.677   2.265   0.798  0.3447  0.1303 -0.5788
 3686WAT     H111269   3.583   2.254   0.787  0.2316  2.4004 -3.0861
 3686WAT     H211270   3.687   2.352   0.837  1.3868  0.3592 -1.2937
 3687WAT      O11271   0.160   1.760   5.434  0.5202 -0.6050  0.5784
 3687WAT     H111272   0.169   1.687   5.373  1.0948  1.2081 -1.6715
 3687WAT     H211273   0.243   1.807   5.427 -0.5520  1.3728  0.3735
 3688WAT      O11274   2.576   2.761   0.441  0.0387  0.5675 -0.2309
 3688WAT     H111275   2.524   2.762   0.360  1.6171  0.1486 -1.3064
 3688WAT     H211276   2.594   2.853   0.459  0.4749  0.6270 -0.9215
 3689WAT      O11277   1.388   1.751   3.519 -0.6261  0.3088 -0.6614
 3689WAT     H111278   1.339   1.686   3.469 -1.6019  1.4997 -1.3297
 3689WAT     H211279   1.479   1.720   3.516 -1.1086 -1.1772 -0.6617
 3690WAT      O11280   0.946   2.324   4.363 -0.4254 -0.1782 -0.1039
 3690WAT     H111281   1.001   2.250   4.388  0.1328  0.4315  0.5499
 3690WAT     H211282   0.868   2.285   4.325 -0.2765 -1.1013  0.5034
 3691WAT      O11283   0.649   2.121   0.105  0.0265  0.3833 -0.4442
 3691WAT     H111284   0.578   2.072   0.062 -0.0921  2.1820 -2.4568
 3691WAT     H211285   0.727   2.067   0.091 -0.9404 -2.1997  2.7706
 3692WAT      O11286   2.831   0.798   4.413  0.2529 -0.2414  0.7645
 3692WAT     H111287   2.850   0.846   4.494  0.2104  1.2183 -0.0596
 3692WAT     H211288   2.914   0.758   4.389  0.2039 -0.8958  1.6622
 3693WAT      O11289   0.433   1.946   0.038 -0.1970 -0.1615 -0.5024
 3693WAT     H111290   0.364   1.978  -0.021 -0.9738 -0.6102  0.1303
 3693WAT     H211291   0.391   1.943   0.124  0.9385  0.5288  0.0902
 3694WAT      O11292   3.941   4.437   1.975  0.1254  0.3415 -0.3296
 3694WAT     H111293   4.019   4.405   1.929  0.9485  2.3464 -0.4124
 3694WAT     H211294   3.976   4.490   2.046 -1.1654  1.3767 -0.4370
 3695WAT      O11295   3.544   2.014   5.638  0.0419  0.2600  0.0952
 3695WAT     H111296   3.605   2.000   5.566  0.9436  2.3718  0.3784
 3695WAT     H211297   3.490   1.935   5.640  1.2773 -0.6763 -1.6210
 3696WAT      O11298   3.760   1.122   0.658  0.3394 -0.1203 -0.5189
 3696WAT     H111299   3.712   1.202   0.637  0.3552 -0.3412 -1.4382
 3696WAT     H211300   3.720   1.055   0.602 -0.6462 -1.0967  1.2435
 3697WAT      O11301   2.498   4.961   2.438  0.1274 -0.3670 -0.5691
 3697WAT     H111302   2.466   5.009   2.514  1.8317  0.8119 -0.5406
 3697WAT     H211303   2.471   5.014   2.363  0.9780  0.0175 -0.6089
 3698WAT      O11304   1.106   2.477   5.664  0.1152  0.4065 -0.4782
 3698WAT     H111305   1.167   2.439   5.601  0.5297 -1.2541  0.8655
 3698WAT     H211306   1.149   2.558   5.692  1.2389 -0.2238 -0.3067
 3699WAT      O11307   0.572   2.313   0.419  0.1139 -0.5905  0.2175
 3699WAT     H111308   0.637   2.248   0.390  0.2803  0.0781 -0.9316
 3699WAT     H211309   0.602   2.396   0.382 -1.1965 -0.2007 -0.0168
 3700WAT      O11310   4.447   4.220   0.082 -0.3445 -0.5874  0.8212
 3700WAT     H111311   4.527   4.271   0.070 -1.4500  0.9688 -0.4108
 3700WAT     H211312   4.439   4.169   0.001 -0.4194 -1.0315  1.1049
 3701WAT      O11313   3.533   0.719   3.276 -0.0190  0.3875  0.5220
 3701WAT     H111314   3.609   0.717   3.218 -0.9221  0.9818 -0.7183
 3701WAT     H211315   3.471   0.777   3.233 -1.7292 -1.1305  0.8276
 3702WAT      O11316   1.146   2.576   0.793  0.1806  0.1700 -0.3483
 3702WAT     H111317   1.086   2.545   0.861  0.5347  2.3409  1.0658
 3702WAT     H211318   1.232   2.575   0.835  0.6977 -0.2373 -1.4097
 3703WAT      O11319   1.828   1.498   1.163 -0.0380  0.3852 -0.6369
 3703WAT     H111320   1.924   1.493   1.158  0.0725  1.1977  0.5366
 3703WAT     H211321   1.802   1.533   1.077  0.7164  0.2832 -0.9194
 3704WAT      O11322   1.053   2.091   3.955 -0.2842 -0.0439  0.5017
 3704WAT     H111323   0.960   2.114   3.956 -0.3731 -0.4092  1.5838
 3704WAT     H211324   1.074   2.080   3.862 -1.4329 -0.4049  0.2719
 3705WAT      O11325   4.113   0.781   4.583 -0.2309  0.3293 -0.7814
 3705WAT     H111326   4.055   0.827   4.643 -0.5565 -0.4055 -0.5343
 3705WAT     H211327   4.182   0.845   4.563  1.1246 -0.0968  2.0850
 3706WAT      O11328   3.751   0.306   2.491 -0.0755  0.2666 -0.1052
 3706WAT     H111329   3.669   0.302   2.442 -0.1835 -1.2618  0.1409
 3706WAT     H211330   3.817   0.330   2.425 -0.3911 -0.6334 -0.7709
 3707WAT      O11331   4.871   1.492   0.201  0.3533 -0.4719  0.2607
 3707WAT     H111332   4.831   1.427   0.258 -0.9842 -0.0789 -0.1870
 3707WAT     H211333   4.962   1.497   0.230 -0.1584 -0.6692  1.9818
 3708WAT      O11334   0.023   0.895   1.086 -0.0743  0.4238  0.6243
 3708WAT     H111335  -0.040   0.831   1.053 -0.3150  1.2768 -0.6145
 3708WAT     H211336   0.031   0.960   1.017  1.7473  0.6480  0.9807
 3709WAT      O11337   3.610   3.670   0.432 -0.8104  0.1989 -0.9383
 3709WAT     H111338   3.640   3.630   0.351  1.9798  1.9480 -0.9034
 3709WAT     H211339   3.627   3.604   0.499 -1.1153 -0.4534 -1.4954
 3710WAT      O11340   1.432   2.251   0.372 -0.2958  0.0059  0.3022
 3710WAT     H111341   1.378   2.296   0.437  1.2065 -0.2604  1.8007
 3710WAT     H211342   1.403   2.159   0.377 -1.1441  0.2171 -0.4472
 3711WAT      O11343   3.384   0.829   5.100  0.2717 -0.5550 -0.5338
 3711WAT     H111344   3.434   0.859   5.176 -3.2302  0.5936  1.5674
 3711WAT     H211345   3.383   0.905   5.041 -1.5715  0.6349  0.9240
 3712WAT      O11346   3.121   2.101   2.154 -0.6019 -0.6452 -0.1148
 3712WAT     H111347   3.164   2.158   2.218 -0.5144 -0.5012 -0.2992
 3712WAT     H211348   3.029   2.104   2.178 -0.4963 -1.0346  0.3431
 3713WAT      O11349   3.314   1.670   4.713  0.2228  0.3761  0.5312
 3713WAT     H111350   3.266   1.731   4.770 -2.3305 -0.1390 -0.9203
 3713WAT     H211351   3.272   1.680   4.628  0.5971 -2.4640 -0.0532
 3714WAT      O11352   2.038   2.901   3.393 -0.2494 -1.0129  0.4816
 3714WAT     H111353   2.038   2.849   3.312  1.5573 -0.6995  0.2584
 3714WAT     H211354   2.023   2.837   3.462 -0.9914 -1.3978 -0.0181
 3715WAT      O11355   0.084   3.577   0.300  0.7547  0.2382  0.5452
 3715WAT     H111356   0.074   3.658   0.251  3.2741  1.3195  1.6816
 3715WAT     H211357   0.016   3.519   0.265 -0.9243  2.7022 -0.4982
 3716WAT      O11358   1.785   3.687   3.504  0.2137  0.5783  0.6871
 3716WAT     H111359   1.875   3.670   3.531  0.1995 -1.2658 -0.2477
 3716WAT     H211360   1.791   3.701   3.409 -0.5331 -0.1369  0.5249
 3717WAT      O11361   1.708   1.634   4.608  0.1977  0.2747  0.1225
 3717WAT     H111362   1.753   1.694   4.668 -1.4470  0.1844  1.5471
 3717WAT     H211363   1.615   1.646   4.628 -0.3434 -0.5986 -1.6685
 3718WAT      O11364   3.213   1.080   5.321 -0.1855  0.4036 -0.5270
 3718WAT     H111365   3.280   1.136   5.282 -0.1516  0.6525 -0.1200
 3718WAT     H211366   3.257   1.037   5.395  0.9883 -3.2336 -3.0802
 3719WAT      O11367   1.937   1.130   1.920  0.1337 -0.0138  0.3847
 3719WAT     H111368   1.851   1.110   1.882  0.1329  0.9442 -0.1390
 3719WAT     H211369   1.998   1.117   1.848  0.2704  0.6392  0.3820
 3720WAT      O11370   3.870   5.068   0.888  0.0207 -0.0917  1.0631
 3720WAT     H111371   3.795   5.104   0.935 -1.0147 -0.3167 -0.3396
 3720WAT     H211372   3.905   5.142   0.838 -1.9230 -0.7928 -1.5829
 3721WAT      O11373   2.703   1.250   4.841  0.8197 -0.5210  0.1177
 3721WAT     H111374   2.705   1.340   4.875  2.2320 -0.7384  0.6951
 3721WAT     H211375   2.793   1.234   4.811 -0.1178 -0.7087 -2.8502
 3722WAT      O11376   1.869   5.239   3.622 -0.5505  0.7587 -0.3184
 3722WAT     H111377   1.808   5.309   3.645 -1.5333  0.4456 -1.8136
 3722WAT     H211378   1.885   5.252   3.528  0.4670 -0.1002 -0.2789
 3723WAT      O11379   0.723   3.367   0.562  0.6598  0.5468  0.9119
 3723WAT     H111380   0.675   3.448   0.545  0.7078  0.1116 -1.6939
 3723WAT     H211381   0.791   3.393   0.625  1.4756  2.8852 -0.7982
 3724WAT      O11382   2.840   2.132   1.944  0.5036  0.2012 -0.5211
 3724WAT     H111383   2.877   2.092   1.865  1.5924  2.0399 -1.0099
 3724WAT     H211384   2.903   2.200   1.968  0.0525 -0.1268  1.8016
 3725WAT      O11385   0.606   4.016   5.305  0.5892 -0.3594  0.5219
 3725WAT     H111386   0.569   4.012   5.217 -0.0970 -0.1363  0.7979
 3725WAT     H211387   0.543   4.066   5.356  1.1766 -0.1330  1.0502
 3726WAT      O11388   2.604   3.837   0.198 -0.1739 -0.1358 -0.4193
 3726WAT     H111389   2.646   3.922   0.213  1.1982 -0.7176 -0.7886
 3726WAT     H211390   2.530   3.857   0.142 -0.5549  0.9658  0.4316
 3727WAT      O11391   2.338   5.398   4.268  0.2765 -0.7969  0.3492
 3727WAT     H111392   2.306   5.420   4.356 -2.5217 -0.6328 -0.6213
 3727WAT     H211393   2.377   5.311   4.278 -0.7199 -1.1292  1.6219
 3728WAT      O11394   2.046   1.070   4.431  0.1706  0.7062 -0.5155
 3728WAT     H111395   2.006   1.130   4.493 -0.0886  1.3450 -1.2934
 3728WAT     H211396   1.972   1.025   4.390  0.3732 -1.4415  1.2675
 3729WAT      O11397   3.723   3.666   2.735  0.1817  0.2672  0.1029
 3729WAT     H111398   3.797   3.698   2.684  0.1949 -0.3476 -0.2769
 3729WAT     H211399   3.714   3.728   2.807  0.4008  0.9336 -0.4412
 3730WAT      O11400   3.790   0.274   3.927  0.4512  0.4260 -0.6746
 3730WAT     H111401   3.789   0.311   4.015 -0.5775  1.5946 -1.1418
 3730WAT     H211402   3.728   0.200   3.932  0.7691  0.1777 -0.3088
 3731WAT      O11403   4.206   2.217   1.518 -0.2638 -0.0105 -0.4366
 3731WAT     H111404   4.133   2.257   1.470 -0.5980 -0.9629 -0.7471
 3731WAT     H211405   4.172   2.202   1.606  0.3143  1.6362  0.1212
 3732WAT      O11406   1.538   3.609   4.050  0.0184 -0.2953  0.3553
 3732WAT     H111407   1.589   3.678   4.008  0.1435 -0.6302 -0.0524
 3732WAT     H211408   1.464   3.654   4.091 -0.4815 -0.0334 -0.8053
 3733WAT      O11409   1.402   1.579   0.452  0.2311  0.0606  0.5531
 3733WAT     H111410   1.403   1.539   0.365 -0.5330  0.0023  0.5694
 3733WAT     H211411   1.321   1.629   0.455 -0.1144 -0.5274  1.4918
 3734WAT      O11412   1.556   0.754   0.735  1.1535 -0.7964  0.0879
 3734WAT     H111413   1.510   0.673   0.715  0.0864 -0.0065 -0.8172
 3734WAT     H211414   1.549   0.763   0.830  1.6042 -1.9398  0.2353
 3735WAT      O11415   2.379   1.816   1.440  0.0335  0.3503 -0.0002
 3735WAT     H111416   2.422   1.735   1.412  1.9553  0.9628  0.9840
 3735WAT     H211417   2.317   1.788   1.507  1.1324 -0.2753  0.7885
 3736WAT      O11418   2.911   5.177   5.022 -0.1643 -0.0142 -0.0549
 3736WAT     H111419   2.937   5.269   5.032 -1.3143  0.4323 -0.9401
 3736WAT     H211420   2.828   5.171   5.070  0.3441 -0.8327  0.7583
 3737WAT      O11421   3.148   2.966   4.805 -0.0883  0.2036  0.3287
 3737WAT     H111422   3.224   3.012   4.770 -0.4035  0.5614  0.1085
 3737WAT     H211423   3.084   3.034   4.822 -0.3197 -0.0833  0.6264
 3738WAT      O11424   2.741   2.971   0.219  0.6543  0.0188 -0.7589
 3738WAT     H111425   2.760   3.045   0.162  2.5098 -0.3136 -0.6493
 3738WAT     H211426   2.684   3.007   0.287 -0.6562  0.6784 -2.1443
 3739WAT      O11427   2.563   2.024   0.487 -0.4235  0.0651 -0.2908
 3739WAT     H111428   2.653   2.005   0.459 -0.1698  0.7964 -0.0059
 3739WAT     H211429   2.542   2.108   0.446 -0.7430  0.2026  0.1441
 3740WAT      O11430   0.143   1.477   0.307  0.1185  0.1125  0.1988
 3740WAT     H111431   0.155   1.397   0.255 -1.2152  0.5688 -0.8957
 3740WAT     H211432   0.165   1.548   0.247  0.3814  0.5924  0.8616
 3741WAT      O11433   4.943   2.008   4.208 -0.0013 -0.8253  0.0071
 3741WAT     H111434   4.970   2.057   4.286 -0.7231 -1.0396  0.4032
 3741WAT     H211435   4.860   1.968   4.233 -1.3632  0.8292 -1.5720
 3742WAT      O11436   3.159   5.617   3.784 -0.4087 -0.5343  0.7285
 3742WAT     H111437   3.123   5.654   3.703 -1.1324 -1.7505  0.4704
 3742WAT     H211438   3.179   5.693   3.838  0.3386  0.3204 -0.6879
 3743WAT      O11439   3.578   0.105   4.102  0.8838 -0.2971 -0.2313
 3743WAT     H111440   3.529   0.109   4.020  0.7598 -1.3876 -0.2281
 3743WAT     H211441   3.542   0.028   4.147  0.1964  0.8915  1.3247
 3744WAT      O11442   0.285   1.240   2.645 -0.3426  0.1394  0.2314
 3744WAT     H111443   0.224   1.312   2.656  1.6941  1.7200  2.0477
 3744WAT     H211444   0.286   1.196   2.730 -0.1809 -0.9015 -0.2908
 3745WAT      O11445   0.953   2.330   0.043 -0.0304  0.1887 -0.6587
 3745WAT     H111446   0.864   2.327   0.007 -0.3908 -1.5287  0.2485
 3745WAT     H211447   1.002   2.385  -0.018 -0.9731 -1.2610 -2.8501
 3746WAT      O11448   3.040   1.702   5.220  0.3464  0.0554 -0.0761
 3746WAT     H111449   3.076   1.628   5.271  0.2899  0.4083  0.4892
 3746WAT     H211450   3.094   1.777   5.246 -0.8121  0.6066  0.8281
 3747WAT      O11451   1.812   0.920   4.407  0.2094  0.7779 -0.2883
 3747WAT     H111452   1.873   0.846   4.407  0.7540  1.1991  0.9818
 3747WAT     H211453   1.813   0.952   4.497 -1.5480  1.0994 -0.3565
 3748WAT      O11454   2.648   4.208   2.778 -0.0189  0.4780 -0.1301
 3748WAT     H111455   2.728   4.211   2.727 -0.1397  0.2240 -0.3383
 3748WAT     H211456   2.578   4.221   2.714 -0.3094 -2.0215 -0.4171
 3749WAT      O11457   0.820   1.699   5.282  0.2590 -0.5211 -0.3926
 3749WAT     H111458   0.908   1.665   5.299  0.6519 -0.2078 -1.6652
 3749WAT     H211459   0.803   1.677   5.191 -0.8420 -0.2499 -0.2689
 3750WAT      O11460   3.500   0.394   4.080 -0.2944 -0.1310 -0.1062
 3750WAT     H111461   3.435   0.335   4.119 -0.1473 -0.8656 -0.9295
 3750WAT     H211462   3.513   0.462   4.145 -2.1852  0.2556 -0.0703
 3751WAT      O11463   2.430   4.344   1.490  0.7401 -0.5086 -0.1728
 3751WAT     H111464   2.426   4.439   1.490 -1.2099 -0.5442  0.2303
 3751WAT     H211465   2.366   4.317   1.424  1.8921 -1.5459 -0.9023
 3752WAT      O11466   4.443   0.644   2.805  0.0002 -0.5939  0.2448
 3752WAT     H111467   4.478   0.576   2.748 -0.7256 -0.9331  0.1899
 3752WAT     H211468   4.406   0.596   2.879 -2.3573 -0.4800 -0.7397
 3753WAT      O11469   2.792   3.638   2.242  0.1760  0.6100  0.1737
 3753WAT     H111470   2.766   3.648   2.151  2.1561  0.7200 -0.4371
 3753WAT     H211471   2.801   3.728   2.275  1.3189  0.6215 -0.1277
 3754WAT      O11472   4.970   1.396   3.179  1.0160 -0.2520  0.2901
 3754WAT     H111473   5.026   1.467   3.148  4.3175 -3.1321 -1.1844
 3754WAT     H211474   4.910   1.379   3.107  0.6529  0.6083  0.3887
 3755WAT      O11475   2.935   0.730   0.843  0.0522 -0.0423  0.0656
 3755WAT     H111476   2.956   0.821   0.821  0.0811 -0.0316  0.1372
 3755WAT     H211477   3.014   0.681   0.818  0.1946  0.0083  0.4071
 3756WAT      O11478   2.315   1.752   4.160 -0.1604 -0.0664 -0.2432
 3756WAT     H111479   2.332   1.658   4.149  0.1332  0.0965 -1.2701
 3756WAT     H211480   2.359   1.774   4.242  1.4480 -0.4440 -0.9564
 3757WAT      O11481   2.235   4.644   2.218  0.6171  0.7200 -0.1912
 3757WAT     H111482   2.203   4.670   2.304  1.2093  3.2330 -0.6535
 3757WAT     H211483   2.323   4.609   2.234  1.3476  2.5955  0.1166
 3758WAT      O11484   1.600   1.431   2.990 -0.2428  0.0850  0.1177
 3758WAT     H111485   1.556   1.379   2.924 -1.5103  0.3290  0.7257
 3758WAT     H211486   1.547   1.511   2.997  0.2296  0.3463  0.9572
 3759WAT      O11487   4.568   3.240   1.366 -0.6178 -0.0163 -0.5105
 3759WAT     H111488   4.623   3.194   1.302 -1.4878 -0.5728 -0.8817
 3759WAT     H211489   4.550   3.174   1.433 -0.0240  0.4566  0.1309
 3760WAT      O11490   0.464   3.673   1.638  0.1965  0.2977 -0.1898
 3760WAT     H111491   0.501   3.753   1.674  0.1026  0.1608  0.2197
 3760WAT     H211492   0.372   3.675   1.664 -0.2096  0.8660 -1.6061
 3761WAT      O11493   2.305   3.594   1.129 -0.4914 -0.0488 -0.2518
 3761WAT     H111494   2.257   3.673   1.102 -1.4204 -0.5950 -0.2408
 3761WAT     H211495   2.323   3.608   1.222 -2.1097 -0.5339  0.1834
 3762WAT      O11496   3.637   1.507   3.565 -0.5077 -0.4915 -0.2300
 3762WAT     H111497   3.725   1.471   3.559  0.0624  1.0020 -1.4481
 3762WAT     H211498   3.648   1.601   3.553 -2.0378  0.0420  1.9703
 3763WAT      O11499   4.667   3.433   2.676  0.2037 -0.3544  0.2813
 3763WAT     H111500   4.699   3.520   2.649  0.4113 -0.3467  0.5464
 3763WAT     H211501   4.630   3.448   2.763 -1.0781 -0.2411 -0.2657
 3764WAT      O11502   1.658   4.159   2.883 -0.3447  0.0114 -0.0893
 3764WAT     H111503   1.586   4.173   2.945 -1.9309  0.8878 -2.0198
 3764WAT     H211504   1.616   4.120   2.807  1.3002  0.2343 -1.1526
 3765WAT      O11505   1.915   0.847   2.288  0.3362 -0.7199 -0.0197
 3765WAT     H111506   1.844   0.822   2.228 -1.8501  0.4494  1.9229
 3765WAT     H211507   1.952   0.926   2.249  0.2755 -1.0767 -0.8216
 3766WAT      O11508   1.196   1.902   3.073 -0.4789 -0.5729  0.2563
 3766WAT     H111509   1.272   1.865   3.118 -0.1078  0.7187  0.7441
 3766WAT     H211510   1.169   1.974   3.129 -0.0329  1.0706 -1.5416
 3767WAT      O11511   2.414   0.019   2.934 -0.4710 -0.5062  0.3058
 3767WAT     H111512   2.468   0.076   2.879 -0.2374 -0.6123  0.4272
 3767WAT     H211513   2.351   0.079   2.975  0.2776 -0.2050  1.0540
 3768WAT      O11514   3.334   2.516   3.595  0.3379  0.2577  0.2269
 3768WAT     H111515   3.421   2.478   3.588  0.4184  0.7037 -2.5540
 3768WAT     H211516   3.274   2.442   3.584  0.4628  0.3284 -1.2041
 3769WAT      O11517   3.479   4.154   1.861  0.1655 -0.3549 -0.0335
 3769WAT     H111518   3.487   4.064   1.828 -0.4437 -1.0655  1.6077
 3769WAT     H211519   3.563   4.172   1.902 -0.4831 -1.1435  1.7615
 3770WAT      O11520   0.370   3.731   0.338  0.0929 -0.1137 -0.1715
 3770WAT     H111521   0.366   3.731   0.242 -1.5849  0.0652 -0.1265
 3770WAT     H211522   0.387   3.823   0.360  1.6384 -0.3394 -0.2975
 3771WAT      O11523   4.590   2.647   1.925 -0.4714 -0.1419 -0.2407
 3771WAT     H111524   4.609   2.741   1.928  2.0883 -0.5924 -0.0084
 3771WAT     H211525   4.513   2.637   1.980  0.0428  1.6772  0.9143
 3772WAT      O11526   0.215   2.878   2.962  0.4503 -0.3092 -0.1497
 3772WAT     H111527   0.254   2.809   2.908  1.1554 -0.4018  0.4703
 3772WAT     H211528   0.211   2.841   3.050  0.4333  0.2858  0.1008
 3773WAT      O11529   2.450   2.873   3.809  0.3070 -0.0804  0.0350
 3773WAT     H111530   2.467   2.783   3.837  1.2714  0.1624  0.2642
 3773WAT     H211531   2.470   2.926   3.886 -1.3085  0.2703  0.2560
 3774WAT      O11532   2.185   2.373   2.658  0.2828  0.5007 -0.0014
 3774WAT     H111533   2.107   2.421   2.687  1.8631  3.0866  0.2028
 3774WAT     H211534   2.212   2.324   2.736  0.3129  1.6221  0.7105
 3775WAT      O11535   1.649   4.072   2.596  0.0311  0.1640  0.2040
 3775WAT     H111536   1.628   4.159   2.564  0.4628 -0.1248 -0.9089
 3775WAT     H211537   1.745   4.066   2.590  0.0796 -0.0969  1.0571
 3776WAT      O11538   2.230   2.027   2.170  0.0837 -0.4081 -0.8503
 3776WAT     H111539   2.154   2.024   2.228  0.6933 -1.2516 -0.0693
 3776WAT     H211540   2.200   1.985   2.089  0.2120 -2.4873  0.1036
 3777WAT      O11541   0.546   3.564   0.520  0.4519 -0.4387 -0.3646
 3777WAT     H111542   0.455   3.543   0.501  0.7913 -0.7472 -1.7608
 3777WAT     H211543   0.586   3.582   0.435  1.2438  1.6775  0.3569
 3778WAT      O11544   1.870   3.758   1.378  0.6878  0.1660  0.3700
 3778WAT     H111545   1.927   3.768   1.301  1.1979  0.4076  0.7717
 3778WAT     H211546   1.922   3.793   1.450  1.6261 -3.1008  1.4748
 3779WAT      O11547   0.269   1.855   4.584  0.0097  0.3509  0.0961
 3779WAT     H111548   0.213   1.904   4.643  0.8185  0.6261  0.6498
 3779WAT     H211549   0.357   1.865   4.620  0.8008  1.9791 -2.0762
 3780WAT      O11550   2.521   1.507   2.689  0.1893  0.3339 -0.0607
 3780WAT     H111551   2.483   1.595   2.685  0.3881  0.4108 -0.2630
 3780WAT     H211552   2.588   1.507   2.621  0.9094  0.3745  0.6308
 3781WAT      O11553   2.751   5.538   1.108 -0.1801  0.3686 -0.1223
 3781WAT     H111554   2.843   5.518   1.096 -0.4109 -1.0603  0.3369
 3781WAT     H211555   2.750   5.629   1.138  0.9661  0.8946 -1.5539
 3782WAT      O11556   2.833   5.445   1.984 -0.1364  0.1663  0.2057
 3782WAT     H111557   2.818   5.533   1.949  1.8070  0.3900 -0.2147
 3782WAT     H211558   2.755   5.395   1.960 -0.8679  1.5409 -0.3623
 3783WAT      O11559   1.651   0.937   3.402 -0.1994  0.3664 -0.3207
 3783WAT     H111560   1.621   0.896   3.483 -0.9867  0.7500 -0.4093
 3783WAT     H211561   1.715   1.002   3.431  1.4783 -1.2412 -0.2172
 3784WAT      O11562   2.152   1.943   1.887  0.0009  0.7357  0.0301
 3784WAT     H111563   2.084   1.887   1.849 -0.4036  1.9954 -1.1742
 3784WAT     H211564   2.230   1.923   1.835  0.1231  0.5491  0.2819
 3785WAT      O11565   3.781   2.552   0.488  0.2810  0.3533 -0.1344
 3785WAT     H111566   3.813   2.615   0.424 -0.8784  2.3630  1.1753
 3785WAT     H211567   3.854   2.538   0.548  1.0100 -0.7178 -1.2054
 3786WAT      O11568   0.709   3.090   2.514 -0.0367 -0.3426  0.2349
 3786WAT     H111569   0.641   3.101   2.448 -0.0148 -0.0976  0.2508
 3786WAT     H211570   0.787   3.064   2.465 -0.1138 -0.5233  0.2058
 3787WAT      O11571   2.977   0.963   2.269 -0.0780  0.5508 -0.2787
 3787WAT     H111572   3.034   1.039   2.264  0.1057  0.5383  1.2576
 3787WAT     H211573   2.989   0.919   2.185  1.6668  0.9103 -0.2590
 3788WAT      O11574   4.953   2.621   3.018  0.3580 -0.5769 -0.8455
 3788WAT     H111575   5.007   2.586   2.947  0.6526 -0.1946 -0.8146
 3788WAT     H211576   5.015   2.670   3.073  0.2496 -1.3759  0.0185
 3789WAT      O11577   0.813   2.025   3.153  0.0767  0.0083 -0.2742
 3789WAT     H111578   0.718   2.015   3.148  0.1188 -1.5253  1.1632
 3789WAT     H211579   0.828   2.063   3.240  0.9032 -3.2827  1.1777
 3790WAT      O11580   3.624   2.157   3.614 -0.4449 -0.0107  0.5513
 3790WAT     H111581   3.668   2.104   3.547 -1.3365  1.2343 -1.0767
 3790WAT     H211582   3.630   2.104   3.694  3.8613 -0.0293  0.4662
 3791WAT      O11583   4.870   2.377   3.538  0.2835 -0.4510  0.1820
 3791WAT     H111584   4.879   2.420   3.452  1.1733 -0.1776  0.4001
 3791WAT     H211585   4.883   2.448   3.601 -0.1897 -0.6849  0.5484
 3792WAT      O11586   1.313   4.429   3.253  0.4625 -0.4865  0.0428
 3792WAT     H111587   1.330   4.336   3.234 -0.1386 -0.4897 -0.5029
 3792WAT     H211588   1.230   4.429   3.299  0.1505 -0.1724 -0.5094
 3793WAT      O11589   2.665   5.274   3.094  0.6666  0.3718 -0.0269
 3793WAT     H111590   2.677   5.364   3.063  0.2258  0.9270  1.3331
 3793WAT     H211591   2.637   5.284   3.185  1.2842 -1.1645  0.3581
 3794WAT      O11592   1.056   1.573   3.559 -0.1884 -0.0445  0.1308
 3794WAT     H111593   0.980   1.514   3.565  0.6366 -1.1586 -0.0424
 3794WAT     H211594   1.018   1.661   3.565 -1.2595 -0.5890  2.6882
 3795WAT      O11595   3.366   3.768   0.690 -0.0931  0.3005 -0.0419
 3795WAT     H111596   3.430   3.806   0.750  0.8655 -1.0521 -0.1530
 3795WAT     H211597   3.358   3.677   0.719 -1.3123  0.2220 -0.5854
 3796WAT      O11598   3.771   1.701   1.134 -0.0002  0.0099  0.3504
 3796WAT     H111599   3.719   1.679   1.056 -0.2558  0.2131  0.4653
 3796WAT     H211600   3.773   1.796   1.136  2.3696  0.0691 -0.9971
 3797WAT      O11601   3.040   0.915   2.013 -0.4336  0.3474 -0.2890
 3797WAT     H111602   3.133   0.920   2.033 -0.6761  0.8081  0.7808
 3797WAT     H211603   3.033   0.950   1.925  0.2712  1.3909  0.0497
 3798WAT      O11604   3.200   1.736   1.113 -0.1360 -0.1271  0.1612
 3798WAT     H111605   3.288   1.722   1.147 -0.3433  0.1923  0.8541
 3798WAT     H211606   3.143   1.695   1.179 -0.4367 -2.7063 -1.5283
 3799WAT      O11607   4.526   1.649   5.075  0.3736  0.3518 -0.3527
 3799WAT     H111608   4.482   1.583   5.022  1.4458 -0.2912 -0.4580
 3799WAT     H211609   4.567   1.600   5.147 -2.6749  1.3496  2.3364
 3800WAT      O11610   0.949   1.783   2.678 -0.0914  0.0536 -0.0002
 3800WAT     H111611   0.896   1.849   2.632  1.2998  0.7460 -0.6593
 3800WAT     H211612   1.037   1.821   2.680  0.6011 -1.5221  0.1927
 3801WAT      O11613   2.280   1.487   1.616  0.5214  0.3520 -0.1009
 3801WAT     H111614   2.308   1.565   1.664  1.3085  0.2057 -0.3095
 3801WAT     H211615   2.339   1.418   1.647  0.4204  0.0463 -0.5862
 3802WAT      O11616   1.980   2.410   2.833 -0.2178 -0.4770 -0.4528
 3802WAT     H111617   1.889   2.425   2.857  0.2275  1.2164  0.3808
 3802WAT     H211618   2.030   2.447   2.906  1.1412 -1.0981 -1.0292
 3803WAT      O11619   2.508   4.611   2.803  0.4236  0.4625 -0.3938
 3803WAT     H111620   2.505   4.658   2.720  1.0595  1.1863 -0.0305
 3803WAT     H211621   2.571   4.662   2.856  0.3433 -0.2220  0.3716
 3804WAT      O11622   4.843   1.406   2.894 -0.0301  0.1487  0.2214
 3804WAT     H111623   4.770   1.468   2.898 -0.3019 -0.1573  0.1457
 3804WAT     H211624   4.809   1.334   2.840 -0.2007 -0.6743  1.3767
 3805WAT      O11625   0.610   1.695   2.691  0.3023  0.4460  0.6150
 3805WAT     H111626   0.569   1.747   2.760  0.6025  1.1302  0.2880
 3805WAT     H211627   0.542   1.683   2.626  0.1492  0.1802  0.8212
 3806WAT      O11628   3.654   1.294   2.999 -0.0127  0.6546 -0.0207
 3806WAT     H111629   3.655   1.329   2.910 -0.0776  1.0301  0.1241
 3806WAT     H211630   3.585   1.344   3.043 -0.9048 -0.4406 -0.1222
 3807WAT      O11631   3.490   1.418   3.182  0.2463 -0.2146 -0.3417
 3807WAT     H111632   3.449   1.472   3.250 -0.6974 -1.2791 -0.0179
 3807WAT     H211633   3.485   1.329   3.217  1.6755 -0.5294 -0.9024
 3808WAT      O11634   2.078   4.835   5.123  0.2521  0.6949 -0.0124
 3808WAT     H111635   2.081   4.746   5.158  0.5602  0.3681 -0.8286
 3808WAT     H211636   2.033   4.826   5.039  2.3245  0.8813 -1.2172
 3809WAT      O11637   2.723   1.274   1.412  0.1798  0.5744 -0.1705
 3809WAT     H111638   2.638   1.290   1.370  0.1768  0.6656 -0.1313
 3809WAT     H211639   2.750   1.188   1.381 -0.8142 -0.3147  1.2972
 3810WAT      O11640   0.897   3.230   5.461  0.1543 -0.1258  0.0928
 3810WAT     H111641   0.944   3.200   5.384  0.9838  0.6442  0.2879
 3810WAT     H211642   0.809   3.250   5.430  0.0177 -1.3025 -0.3314
 3811WAT      O11643   3.075   1.683   2.861  0.1412  0.5604  0.0255
 3811WAT     H111644   3.011   1.728   2.805  0.3322  0.0733 -0.5982
 3811WAT     H211645   3.140   1.649   2.800  0.8265  0.7588  0.6284
 3812WAT      O11646   0.192   2.674   4.505 -0.1456  0.2591 -0.3035
 3812WAT     H111647   0.270   2.694   4.557  0.8589  1.3369 -2.1114
 3812WAT     H211648   0.171   2.757   4.462 -1.6501 -0.3108 -0.6944
 3813WAT      O11649   3.113   5.144   0.848  0.0161  0.5407 -0.0582
 3813WAT     H111650   3.046   5.198   0.807 -0.1844  0.7099  0.4958
 3813WAT     H211651   3.195   5.177   0.812 -0.2360 -0.3144 -1.5047
 3814WAT      O11652   0.623   2.345   1.152  0.8550  0.4194  0.6677
 3814WAT     H111653   0.655   2.434   1.134 -0.1227  0.4729 -1.0161
 3814WAT     H211654   0.598   2.311   1.066  0.6611 -1.2813  1.3681
 3815WAT      O11655   0.275   4.378   2.503 -0.2378 -0.5645  0.2225
 3815WAT     H111656   0.316   4.307   2.552  0.8561  1.2489  2.0885
 3815WAT     H211657   0.208   4.412   2.563  1.5623  2.1176  0.8925
 3816WAT      O11658   3.972   2.644   2.707 -0.2276  0.3713  0.2728
 3816WAT     H111659   4.058   2.663   2.745 -0.8305 -0.3803  2.1689
 3816WAT     H211660   3.988   2.633   2.614  2.1709 -2.0587  0.8317
 3817WAT      O11661   4.244   2.075   2.278 -0.1716 -0.1916 -0.0380
 3817WAT     H111662   4.338   2.057   2.275  0.3265  2.0767 -0.4370
 3817WAT     H211663   4.219   2.089   2.187  0.0258  3.0184  0.2972
 3818WAT      O11664   1.128   1.388   3.780 -0.2789 -0.2840  0.3307
 3818WAT     H111665   1.152   1.429   3.697 -0.5820  1.3101  1.0075
 3818WAT     H211666   1.034   1.375   3.775 -0.1816 -0.9682  0.1076
 3819WAT      O11667   2.332   4.130   2.070  0.1249 -0.5335 -0.4892
 3819WAT     H111668   2.352   4.056   2.126  0.1828 -0.3952 -0.3260
 3819WAT     H211669   2.241   4.116   2.043  0.4342 -1.1616 -1.2329
 3820WAT      O11670   1.029   2.719   3.159 -0.2365  0.1707  0.5537
 3820WAT     H111671   1.051   2.755   3.244  0.6836  0.0025  0.3995
 3820WAT     H211672   1.107   2.671   3.132 -1.0825 -1.1485  0.3334
 3821WAT      O11673   3.049   0.838   5.540 -0.5060 -0.0665  0.0311
 3821WAT     H111674   3.127   0.783   5.537  1.0278  1.9365  0.7627
 3821WAT     H211675   3.064   0.897   5.614 -2.5248  0.6781 -0.0759
 3822WAT      O11676   3.405   2.253   4.794 -0.0870  0.0375 -0.9359
 3822WAT     H111677   3.450   2.310   4.856 -2.0429  1.2400 -0.5664
 3822WAT     H211678   3.385   2.174   4.844  0.5131 -0.0198 -0.7751
 3823WAT      O11679   1.831   5.187   3.098 -0.2473 -0.1127 -0.1511
 3823WAT     H111680   1.739   5.170   3.075 -1.6124  2.7204  2.5621
 3823WAT     H211681   1.866   5.235   3.022 -1.7477  0.8284 -0.2890
 3824WAT      O11682   1.019   2.436   3.194  0.7969  0.7941  0.3538
 3824WAT     H111683   1.098   2.489   3.183  0.6849  1.0089  0.5590
 3824WAT     H211684   1.036   2.357   3.143  0.5708  1.4405 -0.7575
 3825WAT      O11685   4.598   1.878   2.024 -0.1930  0.2999 -0.2743
 3825WAT     H111686   4.691   1.857   2.008 -0.2833  0.1038 -0.5451
 3825WAT     H211687   4.564   1.905   1.939 -0.0682  1.6436  0.0820
 3826WAT      O11688   2.561   0.976   4.018  0.1621 -0.2171 -0.0683
 3826WAT     H111689   2.640   0.970   4.072 -0.1058  0.7885  0.4611
 3826WAT     H211690   2.594   0.978   3.928  0.6174 -1.7008  0.0362
 3827WAT      O11691   0.727   1.473   1.388  0.1949 -0.1274 -0.7947
 3827WAT     H111692   0.644   1.507   1.422  0.4168  0.3279 -0.6977
 3827WAT     H211693   0.715   1.378   1.384 -0.9495  0.0609 -2.4327
 3828WAT      O11694   2.545   2.406   3.061  0.0583  0.1019  0.2057
 3828WAT     H111695   2.563   2.393   3.154 -0.5764  1.9989  0.6443
 3828WAT     H211696   2.526   2.500   3.054  1.6657  0.3398 -2.0868
 3829WAT      O11697   3.545   3.444   2.705 -0.2499  0.3566 -0.2658
 3829WAT     H111698   3.619   3.503   2.718  1.0203 -1.1725 -0.2783
 3829WAT     H211699   3.582   3.356   2.717 -1.6940 -0.5336 -1.8982
 3830WAT      O11700   0.970   1.547   1.199  0.3770  0.5501  0.1638
 3830WAT     H111701   0.884   1.515   1.226  0.6560  0.3956  0.9068
 3830WAT     H211702   1.031   1.485   1.239  1.0517  2.9420  3.2111
 3831WAT      O11703   3.391   2.127   4.315  0.0556 -0.0823 -0.0223
 3831WAT     H111704   3.321   2.068   4.344 -0.6974  0.9089  0.2151
 3831WAT     H211705   3.422   2.169   4.395 -0.3593  0.8556 -0.3409
 3832WAT      O11706   4.272   3.078   2.609  0.6674 -0.1952 -0.4396
 3832WAT     H111707   4.338   3.093   2.678 -0.8361  4.2731  0.3553
 3832WAT     H211708   4.192   3.056   2.657  0.1310  0.7333 -0.8899
 3833WAT      O11709   3.712   4.608   3.975  1.2177 -0.3919  0.0382
 3833WAT     H111710   3.748   4.692   4.004  2.5292 -1.3325  1.2893
 3833WAT     H211711   3.675   4.569   4.054  0.3024 -0.8555 -0.6014
 3834WAT      O11712   4.907   3.877   3.123 -0.1156 -0.3506  0.4374
 3834WAT     H111713   4.917   3.823   3.201 -1.6188  0.2653  1.1046
 3834WAT     H211714   4.812   3.881   3.108  0.0812  0.4541 -0.7663
 3835WAT      O11715   0.815   1.674   4.128  0.1996  0.6510  0.3315
 3835WAT     H111716   0.799   1.659   4.221  0.1101  0.2826  0.2600
 3835WAT     H211717   0.817   1.769   4.119  2.4453  0.7282  1.0816
 3836WAT      O11718   2.910   0.665   1.795 -0.2768  0.2416  0.0256
 3836WAT     H111719   2.815   0.675   1.787 -0.1804  1.2575 -0.0512
 3836WAT     H211720   2.925   0.652   1.888 -0.4806  0.3196  0.0706
 3837WAT      O11721   1.995   5.225   4.813  0.1964 -0.3876 -0.0082
 3837WAT     H111722   1.933   5.170   4.862 -0.3333  0.7476  0.6174
 3837WAT     H211723   1.997   5.186   4.726  0.6247 -2.0369  0.6879
 3838WAT      O11724   3.261   3.385   5.022  0.0948  0.2948  0.2075
 3838WAT     H111725   3.303   3.376   4.936 -0.6941  1.5951 -0.3412
 3838WAT     H211726   3.182   3.436   5.005 -0.3515  0.1167  1.6316
 3839WAT      O11727   1.343   1.889   4.317  0.3983 -0.2293  0.1544
 3839WAT     H111728   1.286   1.815   4.297  0.6927 -0.8106  1.3978
 3839WAT     H211729   1.317   1.956   4.254 -1.0177 -0.8111  0.0783
 3840WAT      O11730   3.697   0.653   1.645 -0.4722  0.1922 -0.1862
 3840WAT     H111731   3.752   0.730   1.652  0.7625 -0.6990  0.2977
 3840WAT     H211732   3.607   0.687   1.646  0.0466  1.6243 -0.3414
 3841WAT      O11733   3.680   5.143   0.297  0.1704  0.1457 -0.6334
 3841WAT     H111734   3.739   5.097   0.357  0.8718  0.4158 -1.1021
 3841WAT     H211735   3.720   5.229   0.285 -1.1793  0.9418  0.3174
 3842WAT      O11736   0.084   1.436   2.690 -0.2317 -0.1224 -0.1511
 3842WAT     H111737   0.055   1.468   2.775 -0.2749 -1.0995  0.2153
 3842WAT     H211738   0.012   1.457   2.631 -0.3804  0.1876  0.1390
 3843WAT      O11739   3.384   2.123   3.064 -0.1766  0.4951 -0.0757
 3843WAT     H111740   3.321   2.178   3.110 -2.0146 -2.1073  0.8048
 3843WAT     H211741   3.377   2.038   3.107  2.6608 -0.4339 -1.1792
 3844WAT      O11742   1.721   0.853   3.139  0.4362  0.1516  0.0287
 3844WAT     H111743   1.712   0.845   3.234 -0.7332  0.5511 -0.0372
 3844WAT     H211744   1.712   0.946   3.122  1.6141  0.2013 -0.3974
 3845WAT      O11745   2.468   1.125   4.842 -0.9935 -0.8159 -0.0172
 3845WAT     H111746   2.421   1.191   4.791 -1.2493 -0.4341  0.6945
 3845WAT     H211747   2.560   1.151   4.837 -1.1250 -0.2181  0.5089
 3846WAT      O11748   1.929   1.116   5.226 -0.1036  0.4484 -0.4845
 3846WAT     H111749   1.985   1.038   5.229  1.1405  1.2759 -1.2119
 3846WAT     H211750   1.906   1.125   5.133 -1.3322  0.2227 -0.2187
 3847WAT      O11751   4.635   1.560   2.926  0.1608 -0.2866 -0.0143
 3847WAT     H111752   4.598   1.502   2.992 -0.5984 -1.1408 -1.1456
 3847WAT     H211753   4.613   1.648   2.956 -0.9953 -0.6990  0.4120
 3848WAT      O11754   3.617   2.945   0.919  0.2228 -0.1150 -0.7393
 3848WAT     H111755   3.679   2.998   0.869  0.7204  0.0723  0.0425
 3848WAT     H211756   3.552   2.917   0.856  0.5149  0.5938 -1.3673
 3849WAT      O11757   4.728   1.766   0.425 -0.5175 -0.0779  0.1823
 3849WAT     H111758   4.639   1.753   0.457 -0.9781 -0.6238 -1.2706
 3849WAT     H211759   4.752   1.683   0.386 -0.1313  0.6595 -1.2187
 3850WAT      O11760   0.298   1.980   2.220 -0.4540 -0.0458  0.2213
 3850WAT     H111761   0.350   1.965   2.299 -0.8776  1.3941  0.8116
 3850WAT     H211762   0.215   2.015   2.253 -1.1854 -0.7598 -0.7937
 3851WAT      O11763   1.391   1.420   0.667  0.4171  0.5007 -0.2620
 3851WAT     H111764   1.376   1.469   0.587 -0.9059  2.0860  0.8927
 3851WAT     H211765   1.386   1.485   0.737  5.3725 -0.0148  0.9756
 3852WAT      O11766   4.817   1.514   3.425 -0.2612 -0.3516  0.0670
 3852WAT     H111767   4.782   1.581   3.367  1.1216 -1.2489 -1.9119
 3852WAT     H211768   4.883   1.468   3.373  0.2882 -1.9415  2.0012
 3853WAT      O11769   1.913   2.176   3.573 -0.6180 -0.2828 -0.5627
 3853WAT     H111770   1.950   2.122   3.642  0.4718  0.0672 -0.8514
 3853WAT     H211771   1.879   2.113   3.509  0.7121 -0.6542 -0.9373
 3854WAT      O11772   2.190   1.449   2.909  0.0509 -0.5098 -0.1911
 3854WAT     H111773   2.202   1.544   2.911  0.7678 -0.6015  0.1065
 3854WAT     H211774   2.126   1.432   2.979  0.8881 -0.3674  0.6265
 3855WAT      O11775   4.692   1.916   4.284 -0.7253  0.1545 -0.3542
 3855WAT     H111776   4.715   1.823   4.293  1.8567  0.6601 -0.7824
 3855WAT     H211777   4.650   1.938   4.367  1.3848 -0.7453  1.0536
 3856WAT      O11778   3.464   2.721   4.842  0.1945 -0.6128 -0.0143
 3856WAT     H111779   3.533   2.787   4.843 -1.1044  0.8381 -1.0346
 3856WAT     H211780   3.461   2.691   4.751 -0.7987 -0.3222 -0.0863
 3857WAT      O11781   4.065   3.672   5.386  0.1588 -0.9855  0.1939
 3857WAT     H111782   4.063   3.760   5.347  0.3803 -0.9257  0.3191
 3857WAT     H211783   3.973   3.650   5.398  0.1003 -0.8010  0.0923
 3858WAT      O11784   0.423   2.173   3.974 -0.1165  0.2239  0.2106
 3858WAT     H111785   0.467   2.232   3.912  0.1614  0.5539  0.7206
 3858WAT     H211786   0.362   2.229   4.022 -0.5065 -0.0793  0.0782
 3859WAT      O11787   3.634   0.543   2.875  0.0170 -0.1277  0.5978
 3859WAT     H111788   3.615   0.612   2.811  0.8835 -0.3749  0.0527
 3859WAT     H211789   3.724   0.562   2.903 -0.5539  0.3386  2.2135
 3860WAT      O11790   1.386   1.237   1.636 -0.0155  0.1078  0.1366
 3860WAT     H111791   1.294   1.262   1.621 -0.4686 -1.7556 -0.4277
 3860WAT     H211792   1.423   1.230   1.548  0.3882 -0.1366  0.3242
 3861WAT      O11793   1.488   1.684   2.885  0.1016  0.4925 -0.3556
 3861WAT     H111794   1.424   1.694   2.814  0.8780 -1.8155 -1.4987
 3861WAT     H211795   1.475   1.760   2.941 -2.9688  0.5951 -1.0618
 3862WAT      O11796   3.013   5.034   4.529 -0.6192  0.3486  0.5167
 3862WAT     H111797   3.047   4.997   4.610  0.3561  1.0634  0.4561
 3862WAT     H211798   3.025   5.129   4.539 -1.8991  0.5682  0.1601
 3863WAT      O11799   4.573   3.641   0.229  0.4441 -0.5345  0.1107
 3863WAT     H111800   4.585   3.728   0.266 -0.0259 -0.0494 -0.8395
 3863WAT     H211801   4.497   3.649   0.172  0.2920 -1.6110  0.1358
 3864WAT      O11802   1.651   1.861   1.386  0.4832  0.8037  0.1081
 3864WAT     H111803   1.712   1.900   1.448 -1.2792  0.7080  2.0057
 3864WAT     H211804   1.681   1.770   1.377  1.0779  0.9673  0.3897
 3865WAT      O11805   0.428   1.410   2.833  0.2922 -0.5770 -0.3651
 3865WAT     H111806   0.422   1.419   2.738 -0.0536  2.6826 -0.1352
 3865WAT     H211807   0.514   1.444   2.855 -0.8475  1.8657  0.6751
 3866WAT      O11808   1.004   2.451   2.340 -0.6628 -0.4934 -0.3977
 3866WAT     H111809   1.063   2.377   2.348 -0.1190 -0.1854 -1.3419
 3866WAT     H211810   1.051   2.525   2.378 -0.2991 -0.1860 -1.4080
 3867WAT      O11811   3.457   0.095   4.437  0.1436  0.3719  0.5226
 3867WAT     H111812   3.483   0.135   4.354 -1.4690 -0.9013 -0.6616
 3867WAT     H211813   3.471   0.001   4.425 -2.5526 -0.1448  0.6378
 3868WAT      O11814   2.135   2.514   1.746  0.0814 -0.0265 -0.3132
 3868WAT     H111815   2.215   2.481   1.705 -0.9068 -2.0247 -0.7925
 3868WAT     H211816   2.123   2.459   1.823 -0.7248  0.3698 -0.1415
 3869WAT      O11817   2.207   1.723   2.947 -0.3239 -0.2531 -0.1999
 3869WAT     H111818   2.116   1.750   2.961  0.6797  2.6468  1.8511
 3869WAT     H211819   2.244   1.793   2.894  1.0895 -0.4472  0.4885
 3870WAT      O11820   4.584   1.389   3.160 -0.5615  0.1115  0.3500
 3870WAT     H111821   4.604   1.303   3.124 -1.9728  0.3056 -0.9630
 3870WAT     H211822   4.532   1.371   3.239 -1.6471 -0.2476 -0.4282
 3871WAT      O11823   3.217   4.710   2.219  0.3386  0.1852 -0.8886
 3871WAT     H111824   3.242   4.799   2.195 -0.9125  0.7189 -0.2788
 3871WAT     H211825   3.158   4.720   2.293 -0.9616 -1.0641 -1.6884
 3872WAT      O11826   2.347   4.600   1.204 -0.0697 -0.4948 -0.0179
 3872WAT     H111827   2.265   4.633   1.168 -0.6511 -0.9453  0.8595
 3872WAT     H211828   2.359   4.514   1.163  0.6808  0.1321 -1.1728
 3873WAT      O11829   2.398   3.696   2.383  0.3667  0.3916 -0.3002
 3873WAT     H111830   2.432   3.779   2.417 -0.3843  0.6777 -0.2306
 3873WAT     H211831   2.443   3.629   2.434  0.3420  0.7763  0.2370
 3874WAT      O11832   3.906   1.473   3.589 -0.1695 -0.0251  0.1254
 3874WAT     H111833   3.958   1.444   3.663  1.4018  1.0386 -0.5318
 3874WAT     H211834   3.902   1.568   3.596  1.1890  0.2410 -1.8551
 3875WAT      O11835   2.275   0.376   4.579 -0.2807 -0.1457  0.9679
 3875WAT     H111836   2.351   0.332   4.618  1.2817  0.7991 -0.8112
 3875WAT     H211837   2.313   0.446   4.526 -2.1333 -1.3469 -2.2605
 3876WAT      O11838   4.557   0.889   0.314 -0.6184 -0.2661  0.2848
 3876WAT     H111839   4.571   0.794   0.311  1.0395 -0.0292 -0.8066
 3876WAT     H211840   4.597   0.917   0.396  0.0689 -0.3618 -0.0094
 3877WAT      O11841   3.332   2.342   1.492 -0.2861 -0.6750  0.0407
 3877WAT     H111842   3.339   2.249   1.515 -0.4606 -1.3071 -2.2210
 3877WAT     H211843   3.310   2.342   1.399 -0.6386  1.6507  0.0681
 3878WAT      O11844   0.370   1.420   3.721 -0.2753 -0.0508  0.3605
 3878WAT     H111845   0.306   1.354   3.694  0.2754 -0.6618  0.5097
 3878WAT     H211846   0.360   1.423   3.817  0.9351 -1.2582  0.5601
 3879WAT      O11847   0.053   3.777   0.123  0.1394 -0.5698 -0.3598
 3879WAT     H111848   0.002   3.858   0.126 -0.5187 -0.8331 -2.7020
 3879WAT     H211849   0.083   3.771   0.033  2.3838 -1.6513  0.3833
 3880WAT      O11850   1.651   4.117   2.277 -0.1095  0.1732  0.4913
 3880WAT     H111851   1.646   4.213   2.286 -0.3533  0.0173  2.4246
 3880WAT     H211852   1.701   4.103   2.196  0.0382  1.9285  0.2381
 3881WAT      O11853   4.623   2.439   4.279 -0.0016  0.0805  0.1728
 3881WAT     H111854   4.540   2.417   4.320  0.4913 -0.1931  1.0446
 3881WAT     H211855   4.643   2.527   4.312 -0.8449  0.9595 -1.5105
 3882WAT      O11856   4.217   4.829   3.601 -0.1688 -0.2856  0.1625
 3882WAT     H111857   4.215   4.870   3.515  0.1155 -1.8541 -0.6184
 3882WAT     H211858   4.242   4.738   3.584  0.9517 -0.3765  1.9869
 3883WAT      O11859   2.747   0.940   1.701 -0.2401 -0.3440  0.1094
 3883WAT     H111860   2.729   0.847   1.719  1.6956 -0.6159  0.8420
 3883WAT     H211861   2.664   0.984   1.720 -1.0641 -1.8503  0.2216
 3884WAT      O11862   1.328   1.591   3.937 -0.0594 -0.3361 -0.2816
 3884WAT     H111863   1.289   1.504   3.934 -0.2588 -0.2323 -0.8656
 3884WAT     H211864   1.255   1.648   3.964  0.3469 -0.4925  1.2463
 3885WAT      O11865   0.441   2.572   3.598 -0.0702 -0.0461 -0.2063
 3885WAT     H111866   0.497   2.638   3.558 -2.4876  1.1354 -1.8874
 3885WAT     H211867   0.359   2.577   3.550 -1.6304 -1.7543  2.0314
 3886WAT      O11868   1.850   1.109   4.962 -0.0474  0.8093  0.1789
 3886WAT     H111869   1.795   1.187   4.965 -1.3650 -0.0989  1.6354
 3886WAT     H211870   1.839   1.075   4.873 -0.8675  1.3328  0.0666
 3887WAT      O11871   0.437   4.102   1.161 -0.0487 -0.0565  0.0961
 3887WAT     H111872   0.460   4.091   1.253  3.0917  2.0231 -0.2838
 3887WAT     H211873   0.360   4.158   1.161  0.8078  1.1774  1.4960
 3888WAT      O11874   3.323   4.574   1.150  0.0881  0.4387 -0.4091
 3888WAT     H111875   3.282   4.488   1.156 -1.0875  0.9307 -0.9021
 3888WAT     H211876   3.354   4.593   1.239 -1.0058  0.1378  0.0495
 3889WAT      O11877   4.747   3.082   3.678 -0.1845 -0.4935 -0.0830
 3889WAT     H111878   4.792   3.126   3.606  0.4763 -0.6615  0.2147
 3889WAT     H211879   4.660   3.122   3.681 -0.7040 -1.4035 -1.8318
 3890WAT      O11880   3.736   1.022   1.089  0.1244 -0.1686  0.1898
 3890WAT     H111881   3.725   0.927   1.094  0.6846 -0.2172  4.2649
 3890WAT     H211882   3.804   1.035   1.024  1.3708 -2.7495  0.8409
 3891WAT      O11883   2.862   1.492   2.729 -0.1767 -0.0435 -0.2335
 3891WAT     H111884   2.827   1.471   2.643 -0.7222 -0.6373  0.1261
 3891WAT     H211885   2.800   1.454   2.791  1.3645 -1.6326  0.4156
 3892WAT      O11886   1.052   2.770   5.660 -0.1166  0.3265  0.1791
 3892WAT     H111887   1.005   2.734   5.735  1.2898 -0.1963  0.8548
 3892WAT     H211888   0.985   2.816   5.609 -1.1931  0.2721  1.4870
 3893WAT      O11889   4.100   3.392   5.526  0.1240  0.2569  0.2234
 3893WAT     H111890   4.078   3.472   5.478 -3.6031 -0.6860  0.0209
 3893WAT     H211891   4.130   3.331   5.459  0.1717  0.6181 -0.0845
 3894WAT      O11892   0.925   3.082   1.642 -0.0910  0.1093 -1.0279
 3894WAT     H111893   0.867   3.158   1.641  0.7389  0.7473 -1.1908
 3894WAT     H211894   0.950   3.072   1.734 -0.5953 -0.2879 -0.9251
 3895WAT      O11895   2.694   1.151   0.161 -0.1037  0.5958  0.1890
 3895WAT     H111896   2.656   1.079   0.110  0.0029 -0.6014  1.7548
 3895WAT     H211897   2.789   1.138   0.153 -0.0864  0.3914  0.6867
 3896WAT      O11898   1.260   3.916   1.475  0.2695 -0.2331 -0.2514
 3896WAT     H111899   1.181   3.925   1.421  0.7544  2.5354 -0.6517
 3896WAT     H211900   1.234   3.950   1.561  0.8476  0.1863 -0.2345
 3897WAT      O11901   1.314   3.424   3.126  0.1036  0.1573 -0.3807
 3897WAT     H111902   1.308   3.329   3.119  0.6291 -0.0072  1.0300
 3897WAT     H211903   1.311   3.441   3.220  0.0263  1.5409 -0.6144
 3898WAT      O11904   0.751   2.680   2.102  0.0214 -0.3138 -0.7536
 3898WAT     H111905   0.679   2.646   2.155  1.1624 -0.8313  0.5280
 3898WAT     H211906   0.709   2.739   2.039 -1.3992  0.4211  0.7879
 3899WAT      O11907   3.343   5.197   5.164  0.2615  0.1373  0.4595
 3899WAT     H111908   3.416   5.217   5.105 -0.3698  1.0619 -0.0236
 3899WAT     H211909   3.301   5.281   5.179 -1.6602 -0.5979 -0.5270
 3900WAT      O11910   0.602   1.921   2.393  0.0269  0.8374  0.8407
 3900WAT     H111911   0.698   1.927   2.398  0.1679  0.8976 -1.0088
 3900WAT     H211912   0.583   1.828   2.403  0.1826  0.9292  2.1407
 3901WAT      O11913   0.989   1.895   2.081  0.0825 -0.1472  0.1048
 3901WAT     H111914   0.913   1.953   2.075 -1.7739 -2.5242 -1.3247
 3901WAT     H211915   0.996   1.856   1.994  1.6693 -1.5533  0.8123
 3902WAT      O11916   0.899   2.420   0.574 -0.0362  0.9572 -0.1177
 3902WAT     H111917   0.866   2.369   0.648  0.0682  0.8223 -0.1648
 3902WAT     H211918   0.826   2.478   0.552 -0.9882 -0.6428 -1.4308
 3903WAT      O11919   0.297   3.571   2.924 -0.5954 -0.1305  0.1070
 3903WAT     H111920   0.315   3.490   2.877 -1.7312  0.4984 -1.5106
 3903WAT     H211921   0.242   3.545   2.997  0.0605 -0.9533  0.3234
 3904WAT      O11922   0.944   4.010   0.524 -0.4442  0.2627  0.4772
 3904WAT     H111923   0.947   3.921   0.559 -0.6982 -0.2459 -0.7590
 3904WAT     H211924   0.853   4.022   0.495  0.4558 -0.7472 -3.4072
 3905WAT      O11925   0.747   3.534   2.489  0.0354 -0.1491  0.2721
 3905WAT     H111926   0.675   3.505   2.545  0.3779  0.6484  1.1375
 3905WAT     H211927   0.810   3.574   2.549  1.2966 -0.9766 -0.4336
 3906WAT      O11928   2.893   5.129   1.756  0.2179  0.0069  0.2291
 3906WAT     H111929   2.850   5.183   1.689  0.8862  0.6367  0.2861
 3906WAT     H211930   2.970   5.094   1.712  0.5720  0.2926  0.6123
 3907WAT      O11931   3.681   0.105   1.041 -0.2399  0.3624  0.6175
 3907WAT     H111932   3.654   0.195   1.023  0.8144  0.5061 -0.3985
 3907WAT     H211933   3.764   0.114   1.087 -0.0896 -0.0784  0.4353
 3908WAT      O11934   2.278   3.551   2.116 -0.3993 -0.4209  0.3395
 3908WAT     H111935   2.203   3.491   2.118 -0.9723  0.2945  1.1138
 3908WAT     H211936   2.275   3.595   2.201 -0.8697  1.7414 -0.7340
 3909WAT      O11937   0.157   1.676   2.464 -0.4488  0.1076  0.8555
 3909WAT     H111938   0.134   1.587   2.491 -2.1975 -0.0164 -0.7937
 3909WAT     H211939   0.189   1.666   2.374 -1.8776  1.2237  0.1712
 3910WAT      O11940   2.244   4.301   1.273 -0.3469  0.4490 -0.2126
 3910WAT     H111941   2.192   4.221   1.265 -0.4071  0.3634  0.9682
 3910WAT     H211942   2.291   4.306   1.189 -0.3655 -0.8001 -0.3249
 3911WAT      O11943   0.593   1.831   2.101 -0.5760 -0.1921 -0.7070
 3911WAT     H111944   0.507   1.867   2.123 -0.0253 -0.1993  1.8260
 3911WAT     H211945   0.655   1.888   2.146  0.6328 -1.1661 -1.0745
 3912WAT      O11946   4.479   3.178   5.767  0.0996  0.1725 -0.2039
 3912WAT     H111947   4.494   3.268   5.794 -2.4703  0.0607  1.9601
 3912WAT     H211948   4.560   3.132   5.789  0.7760  1.5887  0.3427
 3913WAT      O11949   4.699   1.932   2.448  0.0555  0.2850 -0.1862
 3913WAT     H111950   4.633   1.941   2.380  1.1728  2.3186 -1.0860
 3913WAT     H211951   4.768   1.879   2.408  0.2534  0.5965 -0.2521
 3914WAT      O11952   2.719   1.116   2.706  0.0750 -0.3943  0.2654
 3914WAT     H111953   2.656   1.066   2.653 -2.6666  2.6205  0.3468
 3914WAT     H211954   2.802   1.107   2.660 -0.5925 -3.5512 -0.5732
 3915WAT      O11955   3.853   4.231   2.811  0.1681  0.2747  0.1938
 3915WAT     H111956   3.809   4.314   2.830 -0.3242 -0.4039  2.2331
 3915WAT     H211957   3.935   4.256   2.769  0.1327  1.7989  0.9830
 3916WAT      O11958   2.161   1.035   0.918  0.0492  0.0915 -0.2503
 3916WAT     H111959   2.088   0.973   0.915  0.6373 -0.6040 -0.1703
 3916WAT     H211960   2.141   1.091   0.993  0.3827 -1.0753  0.7348
 3917WAT      O11961   2.373   0.221   0.502 -0.0684  0.2149 -0.2522
 3917WAT     H111962   2.319   0.265   0.568  0.8488  0.5235  0.3012
 3917WAT     H211963   2.397   0.138   0.542 -0.9468 -0.3750 -0.8989
 3918WAT      O11964   0.551   2.964   5.436  0.1086  0.3464 -0.3435
 3918WAT     H111965   0.626   2.919   5.398  0.3676 -0.1396  0.6962
 3918WAT     H211966   0.476   2.907   5.415 -0.0009  0.8982 -1.4920
 3919WAT      O11967   3.164   1.344   4.653  0.1188  0.0308 -0.2415
 3919WAT     H111968   3.135   1.319   4.565  3.3197 -0.6828 -1.2410
 3919WAT     H211969   3.199   1.432   4.643 -0.2820  0.2853  0.5307
 3920WAT      O11970   1.088   3.435   1.435 -0.2807 -0.1585 -0.1764
 3920WAT     H111971   1.014   3.492   1.457 -0.6292 -0.8795  0.5856
 3920WAT     H211972   1.051   3.369   1.376 -0.4171 -0.8751  0.6758
 3921WAT      O11973   4.286   2.878   1.958 -0.4292  0.0654  0.0159
 3921WAT     H111974   4.195   2.863   1.933 -0.1276 -0.0526 -1.0576
 3921WAT     H211975   4.337   2.847   1.883  0.4075  1.9666 -0.2595
 3922WAT      O11976   4.073   2.170   0.858  0.1867 -0.0178 -0.0640
 3922WAT     H111977   4.094   2.085   0.818  0.4695  1.0073 -2.2297
 3922WAT     H211978   4.146   2.227   0.833 -0.1140  0.9300  1.1570
 3923WAT      O11979   4.073   0.639   2.153 -0.1972 -0.5229 -0.0518
 3923WAT     H111980   4.012   0.691   2.206 -0.5257 -0.1539 -0.7842
 3923WAT     H211981   4.159   0.677   2.172 -0.4723  0.5464 -0.8603
 3924WAT      O11982   0.220   2.214   1.055  0.5462 -0.7053 -0.4106
 3924WAT     H111983   0.279   2.257   1.117  0.2445  0.0912 -0.6693
 3924WAT     H211984   0.185   2.285   1.002  0.1255 -1.2875 -0.9204
 3925WAT      O11985   1.627   2.006   0.602  0.0652 -0.1755  0.3451
 3925WAT     H111986   1.538   1.970   0.603 -0.1420  0.2403 -0.8636
 3925WAT     H211987   1.614   2.101   0.593  0.6330 -0.1121  0.1976
 3926WAT      O11988   2.308   0.183   2.311  0.3825  0.1377 -0.0706
 3926WAT     H111989   2.337   0.252   2.371  0.2772  0.8610 -0.8260
 3926WAT     H211990   2.214   0.175   2.328  0.2543  0.6911 -0.4578
 3927WAT      O11991   1.463   4.225   1.830  0.2635  0.2459 -0.6851
 3927WAT     H111992   1.482   4.313   1.795 -0.5056  0.4701 -0.5707
 3927WAT     H211993   1.371   4.230   1.857  0.2711 -0.5400 -0.4933
 3928WAT      O11994   4.104   1.250   0.678 -0.5503 -0.2762 -0.2940
 3928WAT     H111995   4.033   1.299   0.717  0.4891 -0.6117  2.1918
 3928WAT     H211996   4.169   1.241   0.748  1.9807  0.0567 -2.4233
 3929WAT      O11997   2.420   2.182   4.682 -0.2489 -0.5120  0.0752
 3929WAT     H111998   2.439   2.260   4.631  0.2791 -0.2156  0.7195
 3929WAT     H211999   2.339   2.148   4.644 -1.7931  1.6399  1.2402
 3930WAT      O12000   4.104   1.825   0.838  0.0060  0.1399 -0.3373
 3930WAT     H112001   4.111   1.735   0.869 -0.2273  0.7059  1.4895
 3930WAT     H212002   4.113   1.819   0.743  2.0309 -1.5869 -0.1023
 3931WAT      O12003   1.187   3.589   3.716 -0.1551  0.2580 -0.2368
 3931WAT     H112004   1.236   3.613   3.795  0.3019 -1.9650  0.2245
 3931WAT     H212005   1.235   3.631   3.645  1.1103 -0.0293  0.4145
 3932WAT      O12006   4.842   1.785   1.444 -0.0480  0.4494 -0.2028
 3932WAT     H112007   4.793   1.839   1.382  0.1793  1.8408  0.7942
 3932WAT     H212008   4.776   1.756   1.507 -0.1831 -0.5291 -0.7769
 3933WAT      O12009   1.210   1.490   3.005 -0.5237 -0.4339 -0.0008
 3933WAT     H112010   1.193   1.492   3.100  1.1122  0.4272  0.3057
 3933WAT     H212011   1.253   1.573   2.987 -2.6856  0.3826 -1.9239
 3934WAT      O12012   0.186   1.563   5.788 -0.0718 -0.8483  0.4557
 3934WAT     H112013   0.185   1.614   5.869  1.1202  0.7228 -0.4467
 3934WAT     H212014   0.217   1.477   5.813  1.1501 -0.1215  1.5504
 3935WAT      O12015   0.709   2.218   4.268 -0.0634  0.0147 -0.5589
 3935WAT     H112016   0.710   2.286   4.201  0.7858  0.4809 -0.0831
 3935WAT     H212017   0.617   2.192   4.273 -0.1587  0.0361 -1.8233
 3936WAT      O12018   3.159   2.408   0.881 -0.0536  0.8246  0.4336
 3936WAT     H112019   3.094   2.413   0.811  1.2181  1.7925 -0.7293
 3936WAT     H212020   3.199   2.322   0.871 -0.6459  0.5128  0.7020
 3937WAT      O12021   3.067   0.910   1.267  0.1744 -0.0807  0.0767
 3937WAT     H112022   3.015   0.935   1.190  0.8075 -1.0829 -0.7036
 3937WAT     H212023   3.155   0.942   1.248  0.1655  0.3778  0.7640
 3938WAT      O12024   1.876   0.814   2.912 -0.5240 -0.0678 -0.6140
 3938WAT     H112025   1.852   0.896   2.869  0.8511  0.4478 -0.4469
 3938WAT     H212026   1.834   0.819   2.998 -0.8257  0.2532 -0.7772
 3939WAT      O12027   0.137   3.204   2.403 -0.5257 -0.0114 -0.3141
 3939WAT     H112028   0.066   3.235   2.460 -0.1133  0.7634 -0.1984
 3939WAT     H212029   0.099   3.203   2.315 -0.3358  1.6416 -0.4468
 3940WAT      O12030   4.195   3.811   5.003 -0.0023 -0.5364  0.1999
 3940WAT     H112031   4.157   3.821   4.916  1.6674 -1.5902 -0.6920
 3940WAT     H212032   4.243   3.728   4.999  0.9124 -0.1282  1.8222
 3941WAT      O12033   2.590   4.681   1.102  0.4796  0.3556  0.2161
 3941WAT     H112034   2.567   4.703   1.012  0.6215  0.0922  0.1140
 3941WAT     H212035   2.508   4.652   1.142  0.5335 -0.1036 -0.0017
 3942WAT      O12036   1.744   4.599   0.516 -0.2275 -0.1678  0.0037
 3942WAT     H112037   1.829   4.637   0.495 -0.5137 -0.2448 -1.3300
 3942WAT     H212038   1.713   4.561   0.434 -1.3116 -0.6149  0.6022
 3943WAT      O12039   3.066   2.410   0.406 -0.3691  0.5797 -0.0084
 3943WAT     H112040   3.110   2.435   0.325  0.9031 -2.7134 -0.4914
 3943WAT     H212041   2.972   2.419   0.387 -0.0599  0.6179 -1.5711
 3944WAT      O12042   2.504   1.612   1.316 -0.0753 -0.6215  0.1439
 3944WAT     H112043   2.556   1.625   1.237 -0.1051 -0.0034  0.2179
 3944WAT     H212044   2.536   1.530   1.354  2.3981  0.8012  1.3710
 3945WAT      O12045   4.583   1.600   2.095  0.0417 -0.3675  0.4502
 3945WAT     H112046   4.559   1.689   2.122  1.6041 -0.4922  2.4784
 3945WAT     H212047   4.608   1.610   2.003  1.4715  1.6069  0.9757
 3946WAT      O12048   1.979   1.347   5.725 -0.2229  0.2156  0.0387
 3946WAT     H112049   1.916   1.276   5.738 -0.6838  0.6387  0.1412
 3946WAT     H212050   2.061   1.313   5.760  0.3342 -1.4293 -2.5829
 3947WAT      O12051   3.631   1.663   0.905 -0.6587  0.5601  0.0630
 3947WAT     H112052   3.608   1.572   0.883  0.8214 -0.3248  1.9155
 3947WAT     H212053   3.548   1.710   0.900 -2.1138 -1.5654  2.1744
 3948WAT      O12054   3.130   1.849   1.753 -0.1550 -0.0063 -0.2294
 3948WAT     H112055   3.175   1.933   1.754  0.2495 -0.2186 -0.0192
 3948WAT     H212056   3.088   1.843   1.839 -0.1332 -0.0463 -0.2215
 3949WAT      O12057   4.404   2.059   1.425  0.5426  0.3800 -0.7948
 3949WAT     H112058   4.462   2.090   1.495  1.0095  0.6657 -1.2949
 3949WAT     H212059   4.319   2.096   1.447  0.4303 -0.4363  0.2089
 3950WAT      O12060   2.673   2.593   0.750  0.1916  0.3307  0.2328
 3950WAT     H112061   2.710   2.581   0.663  0.4604  3.1331 -0.1109
 3950WAT     H212062   2.623   2.513   0.766  1.0456 -0.7189 -2.0057
 3951WAT      O12063   4.318   4.456   0.212  0.2095  0.4234 -0.2508
 3951WAT     H112064   4.338   4.374   0.167 -2.8968 -0.0651 -0.9677
 3951WAT     H212065   4.275   4.429   0.293  2.5094  1.3850  1.4143
 3952WAT      O12066   4.142   1.262   1.209 -0.1771  0.2395 -0.5849
 3952WAT     H112067   4.213   1.323   1.231 -0.0596  0.0714 -0.4995
 3952WAT     H212068   4.092   1.255   1.290  0.3866 -0.5581 -0.2999
 3953WAT      O12069   0.504   3.062   0.155  0.3286 -0.0144  0.2100
 3953WAT     H112070   0.532   3.099   0.238  0.6994 -1.9690  1.0138
 3953WAT     H212071   0.410   3.047   0.166  0.1905  0.6200 -0.0904
 3954WAT      O12072   0.107   3.466   0.904  0.6366 -0.6939 -0.1999
 3954WAT     H112073   0.160   3.393   0.936  0.5072 -0.9960 -0.6546
 3954WAT     H212074   0.030   3.467   0.961  0.5205 -1.0736 -0.3452
 3955WAT      O12075   1.644   2.918   5.344  0.2896  0.3719 -0.1613
 3955WAT     H112076   1.650   2.999   5.395 -0.2503  0.3438 -0.0435
 3955WAT     H212077   1.595   2.859   5.400  0.4077  0.0666 -0.3797
 3956WAT      O12078   3.586   3.493   4.222 -0.0861 -0.6999  0.2307
 3956WAT     H112079   3.624   3.581   4.222 -0.5946 -0.4703  0.2758
 3956WAT     H212080   3.619   3.453   4.302  1.3326 -1.0913 -0.5281
 3957WAT      O12081   4.524   3.174   0.735 -0.2133  0.4710 -0.1036
 3957WAT     H112082   4.457   3.241   0.749 -0.3302  0.1716  0.8154
 3957WAT     H212083   4.476   3.091   0.733  0.0287  0.3314 -0.3837
 3958WAT      O12084   3.446   0.754   1.697  0.0897  0.5766  0.2676
 3958WAT     H112085   3.391   0.727   1.770 -0.7127  0.3769 -0.3984
 3958WAT     H212086   3.399   0.827   1.657  0.6189  0.8150  0.0639
 3959WAT      O12087   1.002   3.372   2.663  0.3235  0.3637  0.1552
 3959WAT     H112088   1.049   3.306   2.715  1.3756  0.7672 -0.2516
 3959WAT     H212089   1.056   3.384   2.585  0.1310  1.6758  0.1996
 3960WAT      O12090   3.975   4.724   2.338  0.3283 -0.0464  0.2959
 3960WAT     H112091   3.989   4.678   2.420  0.3661  1.2559  1.0435
 3960WAT     H212092   3.911   4.791   2.358  1.1236  0.9788 -0.4673
 3961WAT      O12093   3.638   2.797   2.074 -0.5128 -0.2092 -0.1266
 3961WAT     H112094   3.604   2.827   2.159  2.4333  1.4546  0.6418
 3961WAT     H212095   3.591   2.850   2.010 -1.9366 -0.6237  0.5358
 3962WAT      O12096   2.950   2.677   5.738  0.3751 -0.4564 -0.3666
 3962WAT     H112097   2.983   2.751   5.686  1.9371 -0.3765  0.6737
 3962WAT     H212098   2.987   2.600   5.695  1.9084 -0.3752  0.7076
 3963WAT      O12099   3.914   3.471   0.548  0.1907  0.1725 -0.1531
 3963WAT     H112100   3.945   3.551   0.506  1.2612  0.4624  1.1164
 3963WAT     H212101   3.823   3.462   0.520  0.0061  1.9109 -0.1971
 3964WAT      O12102   0.049   2.692   2.017  0.4134  0.0416 -0.2603
 3964WAT     H112103   0.138   2.717   2.040  0.4611  0.7430 -1.1628
 3964WAT     H212104  -0.003   2.770   2.034 -0.3492 -0.8188  1.7873
 3965WAT      O12105   1.287   1.229   2.691  0.2162 -0.1568  0.4715
 3965WAT     H112106   1.380   1.222   2.710 -0.1307 -3.8326  1.5427
 3965WAT     H212107   1.243   1.203   2.772 -1.7168  0.2969 -0.3630
 3966WAT      O12108   1.810   3.243   3.129 -0.4411  0.2528  0.2383
 3966WAT     H112109   1.890   3.271   3.085 -0.8690  0.5141 -0.3723
 3966WAT     H212110   1.748   3.226   3.058 -0.4516 -1.4894  0.6039
 3967WAT      O12111   2.569   5.367   2.287 -0.3821  0.1390  0.6104
 3967WAT     H112112   2.635   5.300   2.268 -1.2259 -1.2439  2.2940
 3967WAT     H212113   2.594   5.401   2.373  0.5126  2.6882 -0.5494
 3968WAT      O12114   1.417   1.487   0.190  0.2689  0.0290  0.7245
 3968WAT     H112115   1.336   1.436   0.196  0.7673 -0.8120  0.4462
 3968WAT     H212116   1.482   1.426   0.155  0.7787  0.9766 -0.0303
 3969WAT      O12117   1.972   4.942   3.085  0.1742  0.2488 -0.3585
 3969WAT     H112118   1.930   5.025   3.107  0.6595 -0.1096  2.2961
 3969WAT     H212119   2.051   4.967   3.038  0.7396  1.3833  1.1206
 3970WAT      O12120   0.742   3.248   1.297  0.0545  0.0167  0.1139
 3970WAT     H112121   0.705   3.166   1.332 -1.4016  0.7530  0.3640
 3970WAT     H212122   0.674   3.313   1.312  1.0976  1.2380 -0.3166
 3971WAT      O12123   2.388   1.863   3.321  0.6081  0.5729  0.0034
 3971WAT     H112124   2.412   1.893   3.408  0.7870 -1.3878  0.6641
 3971WAT     H212125   2.293   1.850   3.326  0.4627  1.3756 -0.4147
 3972WAT      O12126   1.346   3.159   3.047  0.5626 -0.1749 -0.1925
 3972WAT     H112127   1.424   3.120   3.009  0.9170 -0.6654  0.9896
 3972WAT     H212128   1.306   3.088   3.097 -1.0532 -0.1402 -1.3624
 3973WAT      O12129   1.068   3.819   5.136 -0.6441  0.0034 -0.1519
 3973WAT     H112130   1.026   3.770   5.206  2.1575 -1.2837  0.7477
 3973WAT     H212131   1.123   3.756   5.091 -0.4494  1.3590 -1.9512
 3974WAT      O12132   3.516   1.136   4.429 -0.0385 -0.0858  0.0520
 3974WAT     H112133   3.529   1.226   4.458 -0.2626  0.2527 -0.8620
 3974WAT     H212134   3.552   1.134   4.340 -1.6386 -0.4174 -0.6207
 3975WAT      O12135   1.727   3.850   2.315  0.2396  0.4346 -0.4510
 3975WAT     H112136   1.684   3.926   2.353 -0.2663 -0.2554  0.4169
 3975WAT     H212137   1.695   3.776   2.367  1.9639 -0.1877 -0.1927
 3976WAT      O12138   1.982   3.012   3.833  0.2509 -0.1902 -0.1795
 3976WAT     H112139   2.050   3.006   3.765 -0.2771 -0.0066 -0.7351
 3976WAT     H212140   1.909   2.961   3.798  0.1318 -0.4594  0.4532
 3977WAT      O12141   2.946   1.858   1.048  0.0425 -0.6951 -0.2104
 3977WAT     H112142   3.040   1.874   1.049  0.0321 -0.6321 -0.2381
 3977WAT     H212143   2.909   1.935   1.004  0.0573 -1.1338 -1.0051
 3978WAT      O12144   3.560   1.123   1.583 -0.0965  0.6812  0.4990
 3978WAT     H112145   3.602   1.132   1.497 -1.8463  1.0272 -0.3763
 3978WAT     H212146   3.524   1.035   1.582  2.1638 -0.3566  2.0322
 3979WAT      O12147   2.054   1.840   1.038  0.0337 -0.1130  0.2689
 3979WAT     H112148   2.146   1.847   1.065 -0.6622  2.5937  2.4839
 3979WAT     H212149   2.022   1.761   1.082  1.0088 -0.4028  0.4916
 3980WAT      O12150   3.048   2.584   1.056 -0.2022 -0.5547 -0.2943
 3980WAT     H112151   3.100   2.517   1.011 -1.2027 -0.3204 -1.8941
 3980WAT     H212152   3.058   2.564   1.149  0.8510 -1.9090 -0.6651
 3981WAT      O12153   3.646   0.663   5.389  0.0185  0.1814 -0.7908
 3981WAT     H112154   3.740   0.645   5.387 -0.4085 -2.3857 -2.3838
 3981WAT     H212155   3.613   0.611   5.462 -0.0480  2.4537  0.9362
 3982WAT      O12156   2.085   1.600   2.432  0.6751 -0.0960  0.0656
 3982WAT     H112157   2.091   1.686   2.474 -0.1729  0.8390 -1.6151
 3982WAT     H212158   2.112   1.615   2.342  0.9140 -1.7078 -0.1643
 3983WAT      O12159   4.799   1.176   2.436  0.0547 -0.0987  0.0100
 3983WAT     H112160   4.707   1.191   2.412  0.3223  0.9231 -0.4316
 3983WAT     H212161   4.794   1.124   2.516 -0.8758 -1.8130 -1.1186
 3984WAT      O12162   4.869   2.395   1.659  0.0894  0.3990 -0.1987
 3984WAT     H112163   4.942   2.348   1.618  0.6863  0.1859  1.0689
 3984WAT     H212164   4.906   2.480   1.683 -0.4512  0.7876 -0.6992
 3985WAT      O12165   3.946   4.135   3.725 -0.4583 -0.1892  0.4526
 3985WAT     H112166   3.958   4.085   3.644  2.9434  1.6018 -0.3514
 3985WAT     H212167   3.887   4.206   3.701 -2.4929 -1.7266  0.6629
 3986WAT      O12168   1.823   2.220   1.746  0.0954 -0.1537  0.0446
 3986WAT     H112169   1.736   2.253   1.723 -0.7146 -0.6332  2.1045
 3986WAT     H212170   1.884   2.276   1.699 -1.3164  0.2234 -1.4296
 3987WAT      O12171   0.047   3.163   0.183  0.1394 -0.2495  0.1509
 3987WAT     H112172   0.023   3.212   0.104 -0.5298 -0.4065  0.2442
 3987WAT     H212173  -0.005   3.203   0.253  1.8548  0.8761  0.8239
 3988WAT      O12174   1.080   3.285   4.744 -0.1047  0.7662  0.2183
 3988WAT     H112175   1.174   3.268   4.745 -0.4898 -2.0809 -1.1604
 3988WAT     H212176   1.072   3.375   4.713  2.1430  0.2039 -2.3743
 3989WAT      O12177   1.659   1.344   0.092  0.2588 -0.2469  1.3701
 3989WAT     H112178   1.718   1.376   0.160  1.8931 -0.4105  0.0910
 3989WAT     H212179   1.693   1.257   0.070  1.1011  0.6231 -1.0861
 3990WAT      O12180   2.245   4.722   5.784 -0.2331 -0.1602  0.7155
 3990WAT     H112181   2.243   4.634   5.821  1.9386  0.9530  3.9491
 3990WAT     H212182   2.154   4.751   5.786 -0.6325 -1.4072  2.1381
 3991WAT      O12183   0.129   1.937   1.058 -1.0205 -0.2059 -0.4878
 3991WAT     H112184   0.033   1.929   1.059 -1.0636 -0.0196 -1.6404
 3991WAT     H212185   0.145   2.031   1.056 -0.7960 -0.2312 -0.0221
 3992WAT      O12186   2.477   3.441   2.460 -0.0179 -0.4758  0.2540
 3992WAT     H112187   2.407   3.398   2.509  1.2974 -0.8774  1.9057
 3992WAT     H212188   2.554   3.431   2.516  0.7484  2.5020 -0.0956
 3993WAT      O12189   3.793   3.404   1.023 -0.5780 -1.2302  0.2644
 3993WAT     H112190   3.700   3.382   1.022 -0.7369 -0.5705 -0.7075
 3993WAT     H212191   3.799   3.486   0.975  0.1714  0.1631  2.5629
 3994WAT      O12192   0.523   3.786   3.538  0.2905 -0.1951 -0.1784
 3994WAT     H112193   0.455   3.743   3.590 -0.7778 -1.5512 -2.5472
 3994WAT     H212194   0.551   3.720   3.475  2.9771  0.7392 -0.0963
 3995WAT      O12195   1.233   1.631   5.812  0.6130 -0.3987  0.2552
 3995WAT     H112196   1.213   1.549   5.767 -1.0753 -1.2439  2.3591
 3995WAT     H212197   1.316   1.614   5.856  0.7258 -0.6682 -0.0613
 3996WAT      O12198   0.376   1.897   0.297 -0.1451  0.0772 -0.0121
 3996WAT     H112199   0.452   1.869   0.347  1.1676  2.7409 -0.3380
 3996WAT     H212200   0.328   1.955   0.357 -2.2616 -1.8890  0.3523
 3997WAT      O12201   4.805   2.717   4.217  0.2152 -0.1205  0.2196
 3997WAT     H112202   4.783   2.809   4.233  0.7423 -0.1809  1.3988
 3997WAT     H212203   4.859   2.718   4.138 -0.5401  0.4722 -0.3006
 3998WAT      O12204   2.717   0.297   3.651  0.2920 -0.9497  0.7739
 3998WAT     H112205   2.680   0.384   3.638 -0.9625 -1.6037 -0.3539
 3998WAT     H212206   2.774   0.284   3.575 -1.9560 -2.2601 -0.8094
 3999WAT      O12207   0.042   2.916   3.413 -0.2150  0.2598  0.5026
 3999WAT     H112208   0.074   2.942   3.500 -0.5992  1.4269  0.3095
 3999WAT     H212209  -0.043   2.875   3.430  0.3581 -0.8493  0.8014
 4000WAT      O12210   1.746   2.414   0.769  0.5090 -0.1221  0.5094
 4000WAT     H112211   1.710   2.369   0.692 -0.6141  0.5708  0.5934
 4000WAT     H212212   1.763   2.503   0.737 -0.2773  0.2636  1.1230
 4001WAT      O12213   1.622   2.988   2.427  0.3321  0.0559  0.2905
 4001WAT     H112214   1.542   2.942   2.452  0.4280 -0.9769 -1.1247
 4001WAT     H212215   1.606   3.015   2.336  2.0107 -1.2653 -0.4575
 4002WAT      O12216   3.007   4.481   2.199  0.0432 -0.1988  0.0234
 4002WAT     H112217   3.017   4.561   2.251  0.6154 -0.3710  0.1804
 4002WAT     H212218   3.074   4.422   2.232 -1.1395 -1.1963  0.7233
 4003WAT      O12219   0.765   1.256   0.425 -0.8030 -0.0053 -0.2024
 4003WAT     H112220   0.789   1.244   0.517 -0.5482  1.1631 -0.1112
 4003WAT     H212221   0.833   1.312   0.389 -1.2504  0.0680 -0.9482
 4004WAT      O12222   2.255   3.782   0.823 -0.1791 -0.5813  0.1232
 4004WAT     H112223   2.240   3.853   0.760 -2.6028 -0.7039  0.4630
 4004WAT     H212224   2.246   3.702   0.772 -0.0007 -0.6759  0.2372
 4005WAT      O12225   3.383   1.268   2.054  0.3978  0.1102  0.0008
 4005WAT     H112226   3.431   1.301   2.130  0.2427 -0.0644  0.1769
 4005WAT     H212227   3.431   1.303   1.979  0.5254  0.3231  0.1782
   4.97495   5.65703   5.83016
