Generic title
12227
    1ILE      N    1   1.606   1.552   3.834 -0.4768 -0.3367  0.0088
    1ILE     H1    2   1.665   1.495   3.892 -0.4077  0.0989  0.3713
    1ILE     H2    3   1.609   1.533   3.735  2.5915 -0.1920 -0.0114
    1ILE     H3    4   1.512   1.566   3.870 -0.8790  2.3460 -1.7891
    1ILE     CA    5   1.674   1.685   3.854 -0.1865  0.1491  0.8857
    1ILE     HA    6   1.638   1.739   3.767 -1.8419 -1.7227  0.3363
    1ILE     CB    7   1.633   1.763   3.979  0.2233 -0.5743 -1.0074
    1ILE     HB    8   1.524   1.770   3.983  0.3045  0.1538  1.1749
    1ILE    CG2    9   1.670   1.691   4.111 -0.2604  0.6849  0.1160
    1ILE   HG21   10   1.775   1.711   4.132  0.3144 -1.3995 -0.4949
    1ILE   HG22   11   1.606   1.722   4.194 -0.0093 -0.9671  0.9775
    1ILE   HG23   12   1.665   1.583   4.100 -0.9903  0.9327 -2.3984
    1ILE    CG1   13   1.678   1.910   3.979 -0.0591 -0.7037 -0.2666
    1ILE   HG12   14   1.647   1.970   3.893 -0.9419  0.8923  1.1171
    1ILE   HG13   15   1.787   1.907   3.985 -0.0630 -2.6130 -0.5741
    1ILE    CD1   16   1.630   1.988   4.103  0.4468 -0.4044  0.6534
    1ILE   HD11   17   1.675   1.948   4.194  1.5341  1.3297  0.9269
    1ILE   HD12   18   1.655   2.094   4.103 -0.2967 -0.2177  0.7983
    1ILE   HD13   19   1.521   1.981   4.109  0.3906 -1.3445 -0.9771
    1ILE      C   20   1.823   1.665   3.847 -0.5676 -0.1274 -0.2950
    1ILE      O   21   1.875   1.556   3.876 -0.6629 -0.5301  0.0374
    2LEU      N   22   1.894   1.768   3.810  0.1882 -0.2252 -0.0289
    2LEU      H   23   1.849   1.856   3.790  3.2141  1.2938 -0.6661
    2LEU     CA   24   2.039   1.776   3.816 -0.1547 -0.2094 -0.2515
    2LEU     HA   25   2.066   1.718   3.905 -1.8160  0.4175  0.7175
    2LEU     CB   26   2.099   1.695   3.706  0.2006  0.5396  0.0852
    2LEU    HB2   27   2.047   1.599   3.706 -1.2418  1.2038  2.6597
    2LEU    HB3   28   2.065   1.748   3.617  0.3620  0.3636 -0.0837
    2LEU     CG   29   2.257   1.691   3.703 -0.1825  0.2184 -0.1383
    2LEU     HG   30   2.293   1.794   3.697  1.0520 -0.1415  0.6506
    2LEU    CD1   31   2.315   1.614   3.821  0.1223 -0.3503  0.5578
    2LEU   HD11   32   2.278   1.511   3.820 -0.0446 -0.3329 -1.6253
    2LEU   HD12   33   2.422   1.607   3.806  0.1625 -1.3767  1.2272
    2LEU   HD13   34   2.282   1.666   3.911 -0.9087  1.8915 -1.0285
    2LEU    CD2   35   2.302   1.611   3.577 -0.5884  0.4987 -0.4407
    2LEU   HD21   36   2.229   1.639   3.501 -0.9493 -0.3653 -0.4175
    2LEU   HD22   37   2.405   1.636   3.551  1.1598 -2.9218  2.3101
    2LEU   HD23   38   2.291   1.503   3.589  1.3206  0.2367 -0.6962
    2LEU      C   39   2.086   1.926   3.818  0.8269 -0.3637 -0.1337
    2LEU      O   40   2.008   2.016   3.779  0.2526 -0.5370  0.3420
    3ARG      N   41   2.207   1.954   3.868 -0.0263 -0.3840  0.8438
    3ARG      H   42   2.254   1.869   3.896 -0.5509 -1.1511 -0.5256
    3ARG     CA   43   2.283   2.083   3.870 -0.0440 -0.0012  0.4296
    3ARG     HA   44   2.249   2.133   3.779  0.8914 -0.0925  0.0128
    3ARG     CB   45   2.237   2.169   3.989 -0.1715  0.0740 -0.3507
    3ARG    HB2   46   2.131   2.192   3.988  0.0481  1.6923  2.3946
    3ARG    HB3   47   2.267   2.119   4.081 -0.3153 -1.2604 -1.0089
    3ARG     CG   48   2.303   2.308   3.991 -0.4171  0.0917  0.6518
    3ARG    HG2   49   2.410   2.292   3.988 -0.1808  1.4712 -2.1875
    3ARG    HG3   50   2.281   2.357   3.896  2.3484 -1.5184 -0.9318
    3ARG     CD   51   2.267   2.392   4.113  0.1943 -0.5856 -0.1711
    3ARG    HD2   52   2.160   2.415   4.118  0.4882  0.7005  1.0318
    3ARG    HD3   53   2.287   2.331   4.201  1.5943  1.2422  0.8604
    3ARG     NE   54   2.333   2.518   4.112 -0.5145 -0.6070  0.0512
    3ARG     HE   55   2.419   2.521   4.060  0.1110  0.3043  1.0941
    3ARG     CZ   56   2.314   2.613   4.199 -0.6324 -0.0397 -0.0848
    3ARG    NH1   57   2.239   2.605   4.302 -0.1377 -0.6114 -0.2397
    3ARG   HH11   58   2.186   2.525   4.335 -1.2838  0.6079  1.0112
    3ARG   HH12   59   2.214   2.698   4.333  0.2347  0.3185 -2.5383
    3ARG    NH2   60   2.377   2.722   4.175  1.1154 -0.6640  0.2588
    3ARG   HH21   61   2.422   2.727   4.084 -0.0769 -0.5429 -0.3398
    3ARG   HH22   62   2.363   2.806   4.229 -0.9655  0.8484 -2.3529
    3ARG      C   63   2.432   2.049   3.869 -0.5714  0.5468 -0.3869
    3ARG      O   64   2.471   1.949   3.928 -0.5502  0.4175 -0.4410
    4TRP      N   65   2.510   2.140   3.815  0.2212  0.3524  0.0873
    4TRP      H   66   2.471   2.223   3.774  0.5804 -0.0909 -1.2018
    4TRP     CA   67   2.653   2.141   3.834 -0.8267  0.3906  0.9150
    4TRP     HA   68   2.682   2.115   3.935  0.3778  1.0278  0.7551
    4TRP     CB   69   2.721   2.027   3.735 -0.4963 -0.3397 -0.4555
    4TRP    HB2   70   2.651   1.943   3.730 -0.7098 -0.0920 -3.8678
    4TRP    HB3   71   2.720   2.064   3.632  0.5834 -1.3168 -0.8431
    4TRP     CG   72   2.867   1.984   3.760  0.0194  0.0009 -0.0653
    4TRP    CD1   73   2.949   1.933   3.662  0.1910 -0.0724 -0.1804
    4TRP    HD1   74   2.923   1.901   3.562  0.9703 -0.7094 -0.1865
    4TRP    NE1   75   3.080   1.926   3.702  0.2493  0.1258 -0.3948
    4TRP    HE1   76   3.158   1.897   3.644  0.1207 -0.1962 -0.4056
    4TRP    CE2   77   3.091   1.985   3.834 -0.1464 -0.4533  0.5768
    4TRP    CZ2   78   3.202   2.022   3.910  0.2393 -0.1223 -0.5168
    4TRP    HZ2   79   3.300   2.030   3.865  1.4376  2.1849  2.1686
    4TRP    CH2   80   3.184   2.081   4.037  0.1649  0.5914  0.2904
    4TRP    HH2   81   3.268   2.115   4.095  1.4356 -3.2867  0.9937
    4TRP    CZ3   82   3.051   2.105   4.087 -0.2110  0.7102 -0.3525
    4TRP    HZ3   83   3.033   2.144   4.186 -0.8299  1.4227 -0.7317
    4TRP    CE3   84   2.944   2.069   4.000 -0.4516 -0.5230 -0.7705
    4TRP    HE3   85   2.846   2.103   4.032 -0.7735 -1.4636 -0.7232
    4TRP    CD2   86   2.957   2.006   3.875  0.1915 -0.3882 -0.2383
    4TRP      C   87   2.699   2.292   3.835  0.7026  0.3536  0.9289
    4TRP      O   88   2.604   2.375   3.849 -0.0023  0.0373  0.2420
    5PRO      N   89   2.823   2.340   3.816 -0.4858 -0.3659 -0.0913
    5PRO     CD   90   2.930   2.290   3.737 -0.3786 -0.1063  0.5101
    5PRO    HD2   91   2.897   2.311   3.635  0.7405 -3.6744 -0.7122
    5PRO    HD3   92   2.960   2.186   3.725 -2.0492 -0.4003 -1.8459
    5PRO     CG   93   3.055   2.357   3.778 -0.5295 -0.4409 -0.1542
    5PRO    HG2   94   3.109   2.397   3.692  2.6372  0.7558  2.2238
    5PRO    HG3   95   3.125   2.292   3.830 -0.1520 -0.1956 -0.3520
    5PRO     CB   96   3.007   2.481   3.862  0.3189 -0.3859 -0.2866
    5PRO    HB2   97   3.053   2.572   3.826 -1.2219  0.0218 -1.3493
    5PRO    HB3   98   3.022   2.467   3.969 -1.0525 -1.9546 -0.2405
    5PRO     CA   99   2.858   2.482   3.835 -0.0284 -0.1208 -0.5458
    5PRO     HA  100   2.803   2.519   3.922  2.1010  1.2922  0.2770
    5PRO      C  101   2.827   2.569   3.718  0.4293  0.3597 -0.3162
    5PRO      O  102   2.782   2.521   3.614  0.2850  0.0031 -0.1580
    6TRP      N  103   2.864   2.694   3.727 -0.5264 -0.7741 -0.3151
    6TRP      H  104   2.896   2.730   3.816 -2.6909 -0.4927  0.4101
    6TRP     CA  105   2.867   2.781   3.613 -0.1794  0.5878 -0.6945
    6TRP     HA  106   2.892   2.722   3.525 -2.1802 -1.2825 -0.0736
    6TRP     CB  107   2.719   2.821   3.581  0.3577 -0.6577 -0.3203
    6TRP    HB2  108   2.666   2.726   3.592  2.0216 -1.3513  4.0692
    6TRP    HB3  109   2.678   2.883   3.661  1.8474  0.7936 -0.6504
    6TRP     CG  110   2.681   2.884   3.446  0.0461  0.0685 -0.5808
    6TRP    CD1  111   2.563   2.935   3.419 -0.2932  0.4850  0.3008
    6TRP    HD1  112   2.477   2.935   3.485 -1.7300  0.2538 -1.4975
    6TRP    NE1  113   2.567   2.998   3.295  0.3584 -0.2556 -0.0406
    6TRP    HE1  114   2.491   3.050   3.255  0.1143  0.0338  0.7850
    6TRP    CE2  115   2.689   2.976   3.232  0.1537 -0.2591 -0.3832
    6TRP    CZ2  116   2.752   3.021   3.114 -0.2196 -0.9610  0.5152
    6TRP    HZ2  117   2.709   3.098   3.051  3.0995  1.0673  0.5461
    6TRP    CH2  118   2.882   2.984   3.083  0.0623  0.3086  0.1360
    6TRP    HH2  119   2.937   3.026   3.000  1.1384  0.1916  0.7602
    6TRP    CZ3  120   2.948   2.891   3.164 -0.2959  0.3720 -0.5818
    6TRP    HZ3  121   3.043   2.856   3.126 -0.7997  0.0866 -1.6145
    6TRP    CE3  122   2.883   2.840   3.281  0.1423 -0.3616 -0.0368
    6TRP    HE3  123   2.940   2.762   3.329  1.2145  0.2915 -0.2149
    6TRP    CD2  124   2.755   2.891   3.323  0.0645  0.3490  0.1451
    6TRP      C  125   2.966   2.898   3.637  0.0004 -0.5320  0.4139
    6TRP      O  126   3.030   2.910   3.737  0.2004  0.3186 -0.5474
    7TRP      N  127   2.980   2.984   3.533  0.3158  0.4419  0.3018
    7TRP      H  128   2.917   2.963   3.457  0.1237 -0.9668  0.8330
    7TRP     CA  129   3.054   3.114   3.528  0.9429 -0.5232  0.5960
    7TRP     HA  130   3.019   3.177   3.610 -0.6108 -2.8706  1.8828
    7TRP     CB  131   3.203   3.100   3.552 -0.4026  0.1824 -0.0644
    7TRP    HB2  132   3.206   3.034   3.638 -0.6073 -1.9857 -1.6385
    7TRP    HB3  133   3.255   3.044   3.474 -0.1639  0.0471  0.1909
    7TRP     CG  134   3.279   3.222   3.600  0.8365  0.6337 -0.2362
    7TRP    CD1  135   3.413   3.230   3.576 -0.4004  0.0528  0.6698
    7TRP    HD1  136   3.475   3.147   3.544  0.7185 -0.0492  2.9149
    7TRP    NE1  137   3.455   3.359   3.588 -0.0878 -0.3439  0.1560
    7TRP    HE1  138   3.553   3.383   3.582 -0.1756  0.8968  2.6423
    7TRP    CE2  139   3.343   3.445   3.598 -0.8643 -0.0090 -0.2471
    7TRP    CZ2  140   3.328   3.580   3.590 -0.2009 -0.4196 -0.1225
    7TRP    HZ2  141   3.416   3.638   3.564 -1.6765  2.2124  0.3871
    7TRP    CH2  142   3.201   3.639   3.607  0.4429  0.1879 -0.2100
    7TRP    HH2  143   3.184   3.741   3.575 -0.4823 -0.1738 -0.9152
    7TRP    CZ3  144   3.089   3.557   3.630 -0.2905  0.1842  0.3438
    7TRP    HZ3  145   2.991   3.603   3.632 -0.6390 -0.5574  1.4654
    7TRP    CE3  146   3.102   3.421   3.646 -0.0621  0.1294 -0.2873
    7TRP    HE3  147   3.016   3.357   3.662  1.4038 -1.5923  1.1085
    7TRP    CD2  148   3.234   3.360   3.629  0.3826 -0.4411 -0.7568
    7TRP      C  149   2.995   3.190   3.399  0.2467  0.4907 -0.2322
    7TRP      O  150   2.871   3.182   3.385 -0.2947 -0.1078  0.0737
    8PRO      N  151   3.069   3.258   3.307  0.5106 -0.4395  0.3242
    8PRO     CD  152   3.203   3.311   3.306  0.5695  0.9906 -0.2575
    8PRO    HD2  153   3.255   3.265   3.222  0.6006  1.4333 -0.4887
    8PRO    HD3  154   3.267   3.296   3.393 -0.0588  0.5550  0.1302
    8PRO     CG  155   3.205   3.457   3.276  0.4079 -0.2292  0.0835
    8PRO    HG2  156   3.284   3.475   3.203 -1.1316 -3.8277 -2.8325
    8PRO    HG3  157   3.206   3.519   3.366 -0.1283  0.3811 -0.3169
    8PRO     CB  158   3.069   3.485   3.207  0.7788  0.7725  0.1698
    8PRO    HB2  159   3.079   3.535   3.111  3.5333  0.8626  0.4079
    8PRO    HB3  160   3.002   3.547   3.267  0.3252  3.2385 -2.6721
    8PRO     CA  161   3.009   3.340   3.197  0.0463 -0.0715  0.2438
    8PRO     HA  162   2.901   3.349   3.205 -0.1279 -0.7584 -1.0215
    8PRO      C  163   3.044   3.273   3.060 -0.4546  0.4596 -0.7382
    8PRO      O  164   3.120   3.172   3.060 -0.2982  0.0347  0.1066
    9TRP      N  165   3.009   3.330   2.947 -0.1029 -0.4275  0.7589
    9TRP      H  166   2.950   3.412   2.952  0.4210  0.0722 -0.6180
    9TRP     CA  167   3.048   3.298   2.813 -0.5363  0.4049  0.1716
    9TRP     HA  168   3.157   3.295   2.808 -0.5749  0.6277 -1.6091
    9TRP     CB  169   3.002   3.159   2.764 -0.4149 -0.2432  0.3523
    9TRP    HB2  170   3.035   3.086   2.838 -3.2882 -2.3394 -0.2569
    9TRP    HB3  171   2.893   3.169   2.764 -0.5781 -1.8006  0.6666
    9TRP     CG  172   3.049   3.101   2.637  0.0327 -0.4969  0.0074
    9TRP    CD1  173   2.975   3.014   2.565  0.5595  0.5247 -0.5680
    9TRP    HD1  174   2.873   2.985   2.589  0.7311  0.1665 -0.2763
    9TRP    NE1  175   3.051   2.967   2.456 -0.6358  0.8621 -0.3919
    9TRP    HE1  176   3.025   2.901   2.384  1.2104  3.0316 -3.2528
    9TRP    CE2  177   3.170   3.036   2.449  0.1744  0.2732  0.3003
    9TRP    CZ2  178   3.269   3.041   2.345 -0.4336  0.1068 -0.7652
    9TRP    HZ2  179   3.241   3.006   2.247 -3.3896  2.9155 -1.1174
    9TRP    CH2  180   3.382   3.124   2.365 -0.5235  0.5667  0.8927
    9TRP    HH2  181   3.459   3.137   2.291  1.0010 -0.3179  2.2680
    9TRP    CZ3  182   3.396   3.195   2.485  0.7962  0.2478 -0.0345
    9TRP    HZ3  183   3.478   3.264   2.491 -0.5647  2.0647 -1.1439
    9TRP    CE3  184   3.302   3.182   2.592 -0.1285  0.3659 -0.1024
    9TRP    HE3  185   3.307   3.250   2.675  0.5510 -0.5082  0.5925
    9TRP    CD2  186   3.181   3.112   2.573  0.3305  1.1206 -0.5815
    9TRP      C  187   3.007   3.408   2.712 -0.6654 -0.2731 -0.4316
    9TRP      O  188   2.927   3.496   2.743 -0.0824  0.2625 -0.1825
   10ARG      N  189   3.065   3.399   2.596 -0.1000 -0.4553  0.0929
   10ARG      H  190   3.122   3.322   2.564  0.4380 -0.1082  0.1902
   10ARG     CA  191   3.057   3.494   2.484  0.1006  0.2453 -0.2053
   10ARG     HA  192   2.958   3.536   2.463  0.2587 -0.1511 -1.8948
   10ARG     CB  193   3.158   3.608   2.509  0.9658  0.8625  0.0331
   10ARG    HB2  194   3.116   3.650   2.600  0.1937  0.1851  0.0062
   10ARG    HB3  195   3.259   3.568   2.524  1.1163  1.9033  2.0603
   10ARG     CG  196   3.159   3.715   2.395  0.9235 -1.1254  0.2431
   10ARG    HG2  197   3.193   3.671   2.301 -4.4806 -0.4784 -2.4289
   10ARG    HG3  198   3.058   3.755   2.386  1.8483  1.1076 -1.0277
   10ARG     CD  199   3.243   3.837   2.420 -0.0714  0.5262  0.0638
   10ARG    HD2  200   3.184   3.879   2.502 -0.9314 -0.3846 -0.0550
   10ARG    HD3  201   3.345   3.808   2.443  0.4783  2.5975  0.3795
   10ARG     NE  202   3.241   3.925   2.307  0.0596  0.4622  0.3795
   10ARG     HE  203   3.199   3.899   2.218  0.8043  0.2860  0.0721
   10ARG     CZ  204   3.281   4.050   2.303  0.6231  0.1807  0.4991
   10ARG    NH1  205   3.354   4.102   2.392  0.1457  0.2435 -0.1186
   10ARG   HH11  206   3.384   4.046   2.470  1.1457  0.8382 -0.0579
   10ARG   HH12  207   3.408   4.184   2.370  0.5465  0.5391  1.8124
   10ARG    NH2  208   3.263   4.116   2.194 -0.0990 -0.6166  0.4011
   10ARG   HH21  209   3.216   4.069   2.118  0.1162 -1.1635  0.6056
   10ARG   HH22  210   3.296   4.211   2.181  0.8137 -1.0103 -0.2007
   10ARG      C  211   3.091   3.421   2.351  0.1707 -0.5043 -0.2836
   10ARG      O  212   3.174   3.331   2.357 -0.2112  0.3084  0.1746
   11ARG      N  213   3.042   3.473   2.236 -0.2812  0.0350 -0.2556
   11ARG      H  214   2.992   3.561   2.241  0.8300  0.7086 -0.6027
   11ARG     CA  215   3.089   3.429   2.106 -0.1247  0.5762 -0.6204
   11ARG     HA  216   3.191   3.393   2.119 -1.5156 -2.8548  2.7751
   11ARG     CB  217   3.015   3.298   2.068 -0.4243 -0.5785  0.3466
   11ARG    HB2  218   3.010   3.231   2.154  0.2642 -0.7887  0.2330
   11ARG    HB3  219   2.912   3.326   2.046 -0.0511  1.5319  1.0875
   11ARG     CG  220   3.067   3.229   1.940 -0.0166 -0.3703  0.0247
   11ARG    HG2  221   3.041   3.298   1.860 -1.3896  0.2671  0.9828
   11ARG    HG3  222   3.176   3.223   1.943  0.0284  0.3900 -0.0400
   11ARG     CD  223   3.002   3.093   1.918  0.2023  0.2867  0.3720
   11ARG    HD2  224   3.032   3.022   1.994 -1.7360 -0.6611  0.3224
   11ARG    HD3  225   2.893   3.099   1.925  0.2917  2.1328  0.8390
   11ARG     NE  226   3.039   3.036   1.789  0.0794 -0.3629 -0.0023
   11ARG     HE  227   3.130   3.058   1.752 -0.2866  0.3712 -0.4815
   11ARG     CZ  228   2.978   2.934   1.728  0.0334  0.3601 -0.5273
   11ARG    NH1  229   2.883   2.871   1.774  0.0426  0.1038  0.7958
   11ARG   HH11  230   2.861   2.879   1.872 -2.6900 -0.9916  0.3725
   11ARG   HH12  231   2.859   2.789   1.719  2.2147  0.6737 -1.1867
   11ARG    NH2  232   3.024   2.904   1.611 -0.1442  0.2035  0.0388
   11ARG   HH21  233   3.107   2.949   1.572  0.6110 -1.7045 -0.6791
   11ARG   HH22  234   2.971   2.848   1.545 -1.0864 -1.3382  2.0063
   11ARG      C  235   3.088   3.533   1.992  0.5597  0.1199 -0.1716
   11ARG      O  236   3.010   3.628   1.999 -0.4684 -0.1427  0.1457
   12LYS      N  237   3.169   3.514   1.887  0.5984  0.1318 -0.2253
   12LYS      H  238   3.236   3.440   1.877  1.4315  1.0466 -1.6639
   12LYS     CA  239   3.154   3.587   1.769 -0.1467  0.0410 -0.6780
   12LYS     HA  240   3.049   3.614   1.752 -1.4281 -3.0891  1.4380
   12LYS     CB  241   3.242   3.710   1.775 -0.6560  0.3933 -0.1499
   12LYS    HB2  242   3.226   3.752   1.874 -0.2847 -0.4679  0.2906
   12LYS    HB3  243   3.348   3.681   1.776 -1.3814 -2.6578 -0.9577
   12LYS     CG  244   3.223   3.813   1.666  1.4968 -0.1024 -0.3259
   12LYS    HG2  245   3.268   3.777   1.573  0.1156 -1.6622 -0.4360
   12LYS    HG3  246   3.116   3.820   1.647  1.6023  1.2879 -0.5387
   12LYS     CD  247   3.281   3.945   1.703  0.4189  0.1254 -0.2266
   12LYS    HD2  248   3.221   3.990   1.782  0.5438 -0.8941  0.4690
   12LYS    HD3  249   3.385   3.926   1.730  1.1029 -0.5161 -3.0068
   12LYS     CE  250   3.280   4.035   1.582 -0.0561  0.7063 -0.6374
   12LYS    HE2  251   3.335   3.987   1.500 -0.9040  0.2657 -0.9655
   12LYS    HE3  252   3.175   4.044   1.554 -0.3427  0.0012  0.1750
   12LYS     NZ  253   3.337   4.165   1.606 -0.4600  0.4633 -0.2056
   12LYS    HZ1  254   3.435   4.143   1.615 -0.8014 -0.8465  0.5300
   12LYS    HZ2  255   3.322   4.227   1.527 -0.7801 -0.9265 -1.2664
   12LYS    HZ3  256   3.304   4.218   1.685  0.9428  2.4538 -0.8846
   12LYS      C  257   3.182   3.496   1.652  0.6762 -0.3864 -0.1390
   12LYS      O  258   3.252   3.396   1.661 -0.3113  0.1920  0.0660
   13NHE      N  259   3.132   3.529   1.535  0.4755  0.9028 -0.3674
   13NHE    HN1  260   3.059   3.598   1.527 -1.9136 -1.5013 -0.9131
   13NHE    HN2  261   3.150   3.473   1.453 -1.9817 -0.2018 -0.2231
   14Cl-    Cl-  262   3.023   4.203   1.971 -0.2292  0.0070  0.2121
   15Cl-    Cl-  263   1.449   2.022   1.953  0.0673  0.1963  0.0114
   16Cl-    Cl-  264   1.023   2.441   3.863 -0.0078 -0.2002  0.1344
   17Cl-    Cl-  265   1.179   4.344   4.482  0.0582 -0.0330  0.3105
   18Cl-    Cl-  266   2.023   2.999   1.264 -0.2403 -0.2681 -0.0967
   19WAT      O  267   3.301   5.153   3.902 -0.1536  0.6467  0.3536
   19WAT     H1  268   3.327   5.104   3.980 -1.4787 -0.2422  0.2788
   19WAT     H2  269   3.208   5.172   3.916 -0.0855  1.6239 -0.4250
   20WAT      O  270   4.015   4.243   3.947  0.2088  0.1278  0.0866
   20WAT     H1  271   3.945   4.180   3.927  0.3828 -0.2886  0.7454
   20WAT     H2  272   4.086   4.189   3.981  1.1518  0.4590 -1.2817
   21WAT      O  273   3.046   2.888   4.801 -0.1711  0.3308 -0.8344
   21WAT     H1  274   3.133   2.897   4.761  0.0330  0.7837 -0.2953
   21WAT     H2  275   3.063   2.864   4.892 -0.6568 -1.6859 -1.2422
   22WAT      O  276   0.790   4.402   2.789 -0.4187 -0.3924 -0.3946
   22WAT     H1  277   0.830   4.377   2.872  0.6070 -0.5740 -0.9322
   22WAT     H2  278   0.832   4.346   2.724 -0.5243  0.3987 -1.1644
   23WAT      O  279   1.589   0.434   3.441 -0.3161  0.4759  0.0987
   23WAT     H1  280   1.508   0.394   3.471  0.9068 -0.1489  2.8002
   23WAT     H2  281   1.586   0.523   3.476  0.5908  0.1263  1.0945
   24WAT      O  282   1.920   4.340   4.971 -0.3345 -0.1928  0.4646
   24WAT     H1  283   1.825   4.339   4.957 -0.1277  0.8363 -1.2341
   24WAT     H2  284   1.930   4.365   5.063 -1.6879  2.3833 -0.0020
   25WAT      O  285   2.986   4.345   4.183 -0.3710  0.0278  0.1358
   25WAT     H1  286   2.976   4.311   4.272 -0.2454 -0.8588 -0.1848
   25WAT     H2  287   2.923   4.418   4.178  0.5057  0.8902  1.3422
   26WAT      O  288   0.130   2.753   0.200 -0.2673 -0.0597 -0.0823
   26WAT     H1  289   0.202   2.743   0.138 -2.7267 -0.1126 -3.2034
   26WAT     H2  290   0.130   2.672   0.251  3.9131  1.3448  2.6770
   27WAT      O  291   2.502   4.539   0.808 -0.0553 -0.0538 -0.3365
   27WAT     H1  292   2.417   4.550   0.852 -0.6006  1.8287 -1.7542
   27WAT     H2  293   2.548   4.621   0.824  0.8258 -0.4073 -0.9967
   28WAT      O  294   1.101   3.855   3.398  0.1264  0.0404 -0.0911
   28WAT     H1  295   1.115   3.912   3.323 -0.7166  0.5636  0.1356
   28WAT     H2  296   1.044   3.785   3.366 -2.1450  1.4826  0.5624
   29WAT      O  297   2.557   5.259   4.057  0.4433 -0.2812 -0.2618
   29WAT     H1  298   2.540   5.350   4.081 -0.8855 -0.3129 -0.9903
   29WAT     H2  299   2.632   5.262   3.998 -0.8160  0.5725 -1.8667
   30WAT      O  300   1.526   4.402   4.154 -0.4020 -0.3160  0.6254
   30WAT     H1  301   1.597   4.406   4.090  0.8753  0.7719  2.0382
   30WAT     H2  302   1.494   4.312   4.149 -0.8631 -0.0883 -2.0366
   31WAT      O  303   4.073   2.068   4.706  0.1410  0.0805 -0.3904
   31WAT     H1  304   4.112   2.061   4.619  1.8381  0.3527  0.3103
   31WAT     H2  305   4.146   2.091   4.763 -0.9710  0.0798  1.0862
   32WAT      O  306   1.162   2.799   4.547 -0.3830  0.0422  0.0963
   32WAT     H1  307   1.073   2.815   4.517 -0.8321 -0.5232  1.1011
   32WAT     H2  308   1.209   2.880   4.528 -1.7978  1.3854  2.0908
   33WAT      O  309   1.595   3.974   5.002 -1.1615 -0.2760 -0.0280
   33WAT     H1  310   1.615   3.907   5.068 -0.2537 -1.2054 -1.1961
   33WAT     H2  311   1.670   3.972   4.943 -1.3419  1.4704 -0.3644
   34WAT      O  312   2.015   1.553   2.892  0.4050 -0.0198  0.2756
   34WAT     H1  313   2.050   1.589   2.974 -0.7431 -1.0485  1.2455
   34WAT     H2  314   1.926   1.526   2.914  0.1888 -0.5950 -1.2442
   35WAT      O  315   1.469   2.225   4.420 -0.0266  0.2159  0.1679
   35WAT     H1  316   1.455   2.270   4.503  0.6745  0.7947 -0.0178
   35WAT     H2  317   1.468   2.132   4.443 -2.1917  0.2481  0.4533
   36WAT      O  318   3.497   5.484   3.890  0.2401 -0.6860  0.0193
   36WAT     H1  319   3.420   5.534   3.916 -0.2380 -0.1879 -2.1369
   36WAT     H2  320   3.546   5.471   3.971 -1.4463  0.1124  1.2279
   37WAT      O  321   1.010   4.465   4.832 -0.3143 -0.5615  0.0427
   37WAT     H1  322   1.079   4.514   4.877  0.1944 -1.3028  0.0789
   37WAT     H2  323   1.037   4.463   4.740 -0.0266 -1.2841  0.1400
   38WAT      O  324   4.210   4.485   1.908  0.7360 -0.2476 -0.7200
   38WAT     H1  325   4.235   4.575   1.928  2.0967 -0.8777  0.7055
   38WAT     H2  326   4.293   4.436   1.910 -0.1426 -1.7895  0.2000
   39WAT      O  327   2.288   3.002   3.174 -0.3212  0.0876  0.0788
   39WAT     H1  328   2.204   3.015   3.219  0.0903 -0.0553  0.9183
   39WAT     H2  329   2.310   3.087   3.138 -0.5534  0.2590  0.3412
   40WAT      O  330   4.776   2.204   3.175  0.4871 -0.0973  0.0461
   40WAT     H1  331   4.699   2.162   3.212 -0.0708 -0.1871 -1.1601
   40WAT     H2  332   4.838   2.133   3.160  0.5022 -0.1349  0.2801
   41WAT      O  333   2.124   2.561   2.273 -0.3667 -0.4317  0.1591
   41WAT     H1  334   2.094   2.473   2.296 -0.4893  0.0932  2.2429
   41WAT     H2  335   2.056   2.595   2.214  0.1774 -2.0320 -1.4741
   42WAT      O  336   3.902   3.016   4.694 -0.0163  0.1768  0.1506
   42WAT     H1  337   3.843   3.045   4.764  0.1553 -1.2658  0.9258
   42WAT     H2  338   3.867   2.932   4.666 -0.8296  1.3035 -2.4454
   43WAT      O  339   2.993   2.473   5.599 -0.6046  0.1566  0.1128
   43WAT     H1  340   3.033   2.448   5.683  2.7642  0.0831 -1.3436
   43WAT     H2  341   2.993   2.392   5.548 -0.8747  0.5828 -0.5691
   44WAT      O  342   4.800   1.513   4.988  0.6934 -0.1731  0.0990
   44WAT     H1  343   4.712   1.512   4.951  0.8932 -0.1218 -0.3805
   44WAT     H2  344   4.787   1.529   5.082  0.2108  0.1191 -0.0178
   45WAT      O  345   2.076   3.184   1.963 -0.4669 -0.3637 -0.2038
   45WAT     H1  346   2.137   3.206   1.892  0.9706 -0.8565  0.8350
   45WAT     H2  347   2.034   3.103   1.934  0.0318 -0.5017 -0.5614
   46WAT      O  348   0.028   0.407   4.134  0.0570  0.1285  0.0747
   46WAT     H1  349  -0.052   0.387   4.086 -0.1494 -1.3338  0.9827
   46WAT     H2  350   0.066   0.322   4.155 -0.1675  0.6206  2.9784
   47WAT      O  351   4.513   5.567   4.110 -0.3032  0.1189  0.0424
   47WAT     H1  352   4.536   5.660   4.100 -2.1151  0.5258 -0.7638
   47WAT     H2  353   4.579   5.520   4.060  1.3562  0.8417  1.4441
   48WAT      O  354   3.355   0.025   3.334 -0.2827 -0.0654 -0.0404
   48WAT     H1  355   3.365   0.030   3.238 -0.9520 -0.1196 -0.1165
   48WAT     H2  356   3.440   0.055   3.368  0.2179 -0.7461 -0.6509
   49WAT      O  357   1.308   4.789   2.600 -0.4241 -0.0211  0.5795
   49WAT     H1  358   1.364   4.713   2.619 -0.3474  0.2003  1.2841
   49WAT     H2  359   1.349   4.861   2.649 -2.2129 -0.1972  2.4792
   50WAT      O  360   0.443   4.382   3.465 -0.0436 -0.0149  0.1374
   50WAT     H1  361   0.357   4.341   3.458 -0.4468  0.7647  0.4605
   50WAT     H2  362   0.451   4.407   3.557  1.0174 -1.1161  0.3724
   51WAT      O  363   2.804   4.663   1.290  0.1145 -0.4687 -0.3490
   51WAT     H1  364   2.879   4.711   1.254  1.1106 -1.2665  0.6045
   51WAT     H2  365   2.798   4.692   1.381  0.1635 -1.4779 -0.0144
   52WAT      O  366   0.101   2.280   5.145  0.0724  0.6632 -0.4287
   52WAT     H1  367   0.189   2.276   5.181  0.4574  2.7736 -0.9713
   52WAT     H2  368   0.058   2.349   5.195 -1.3079 -0.3554 -0.1556
   53WAT      O  369   0.719   2.678   1.270 -0.2292 -0.5288 -0.0754
   53WAT     H1  370   0.814   2.691   1.262 -0.1321 -0.3528  1.1778
   53WAT     H2  371   0.682   2.734   1.201  0.5137  0.7630  0.5266
   54WAT      O  372   0.222   2.315   2.991 -0.1307 -0.6790  0.2610
   54WAT     H1  373   0.296   2.361   3.030 -1.0302 -0.0341  1.2732
   54WAT     H2  374   0.257   2.277   2.911  1.1810 -0.0376  0.4982
   55WAT      O  375   1.826   4.553   1.289  0.7344  0.3083  0.5452
   55WAT     H1  376   1.897   4.613   1.265  0.9178 -0.4515 -0.9460
   55WAT     H2  377   1.746   4.601   1.265  0.8293  0.3695  0.3499
   56WAT      O  378   4.525   4.100   0.286 -0.0637  0.1862  0.4323
   56WAT     H1  379   4.600   4.125   0.340 -0.6022 -0.4300  1.5012
   56WAT     H2  380   4.449   4.113   0.343 -1.1656  3.6833 -1.5237
   57WAT      O  381   2.253   4.732   3.467  0.1704 -0.2222  0.2441
   57WAT     H1  382   2.248   4.777   3.551  2.3062  0.4960  0.0484
   57WAT     H2  383   2.216   4.645   3.484 -0.7559  0.3973  1.5284
   58WAT      O  384   4.451   2.144   3.625  1.0803 -0.1089 -0.4846
   58WAT     H1  385   4.527   2.144   3.683  0.6544 -1.1590  0.0980
   58WAT     H2  386   4.376   2.143   3.684  0.6106  0.3807 -1.0582
   59WAT      O  387   4.709   3.292   4.652  0.5288 -0.1449 -0.0378
   59WAT     H1  388   4.725   3.360   4.717  1.2139  0.5549 -0.9134
   59WAT     H2  389   4.646   3.330   4.591 -1.3043 -1.3387  0.9877
   60WAT      O  390   0.834   2.857   5.721  0.6054  0.2681  0.2604
   60WAT     H1  391   0.841   2.845   5.816  0.4962 -0.0877  0.2261
   60WAT     H2  392   0.907   2.805   5.686  0.1103 -0.3315  0.1040
   61WAT      O  393   3.588   3.663   3.805  0.3324  0.2538  0.0209
   61WAT     H1  394   3.633   3.744   3.780 -0.7399  0.6503 -0.6716
   61WAT     H2  395   3.595   3.607   3.727  0.8106 -0.2147  0.3923
   62WAT      O  396   4.812   3.118   4.199  0.2744 -0.4488  0.5230
   62WAT     H1  397   4.818   3.040   4.255 -1.8994 -1.6483 -0.7807
   62WAT     H2  398   4.769   3.087   4.119  0.7212  1.8017 -0.6649
   63WAT      O  399   0.359   4.631   2.626 -0.2611 -0.0664  0.2572
   63WAT     H1  400   0.414   4.556   2.599 -1.0991 -0.8443  0.6573
   63WAT     H2  401   0.270   4.596   2.628 -0.7279  1.0632  0.0619
   64WAT      O  402   2.694   4.213   1.932 -0.0759 -0.1337 -0.1352
   64WAT     H1  403   2.679   4.133   1.882  0.0335  0.2228 -0.7552
   64WAT     H2  404   2.783   4.202   1.967 -0.6997 -1.0371  1.2483
   65WAT      O  405   2.188   2.323   5.364  0.3828 -0.1450 -0.5035
   65WAT     H1  406   2.238   2.252   5.322  2.1511  1.0415 -0.4964
   65WAT     H2  407   2.244   2.399   5.357 -1.3479  1.2189 -0.2160
   66WAT      O  408   3.484   4.059   2.812  0.2077  0.0512  0.1683
   66WAT     H1  409   3.553   4.061   2.878  0.8981 -2.1369 -0.3831
   66WAT     H2  410   3.416   4.116   2.846  1.7308  1.2541  1.3606
   67WAT      O  411   4.652   4.826   1.853 -0.3180  0.0925 -0.1064
   67WAT     H1  412   4.690   4.895   1.799  2.3227 -2.7875 -2.3301
   67WAT     H2  413   4.631   4.756   1.791  0.1986 -2.3541  2.2856
   68WAT      O  414   4.343   2.370   1.062 -0.0121  0.4434  0.0132
   68WAT     H1  415   4.332   2.338   1.151 -2.9219 -2.5376 -1.1823
   68WAT     H2  416   4.276   2.438   1.052 -2.7908 -2.1965 -0.9146
   69WAT      O  417   4.399   3.389   1.163 -0.6682 -0.4032 -0.1369
   69WAT     H1  418   4.433   3.376   1.074  1.1810  2.5057  0.0027
   69WAT     H2  419   4.305   3.405   1.150 -0.2950  0.8369 -1.7341
   70WAT      O  420   3.927   0.374   1.935  0.8123  0.4517 -0.5285
   70WAT     H1  421   3.885   0.330   1.862  1.8804  1.3430 -1.7094
   70WAT     H2  422   3.982   0.307   1.976  0.5050  0.0538 -0.7752
   71WAT      O  423   0.469   1.758   0.493  0.2498 -0.3272 -0.2406
   71WAT     H1  424   0.375   1.770   0.510 -0.1708 -0.9709 -1.9339
   71WAT     H2  425   0.507   1.742   0.579 -0.8965  1.6954  0.7183
   72WAT      O  426   1.409   3.757   5.428  0.3264 -0.1300 -0.2640
   72WAT     H1  427   1.358   3.688   5.470  0.0625 -0.1947 -0.6903
   72WAT     H2  428   1.354   3.789   5.357  0.9348 -0.2978 -0.8206
   73WAT      O  429   2.729   2.868   0.439 -0.3110 -0.3462 -0.1426
   73WAT     H1  430   2.711   2.851   0.531  0.7747  0.6708  0.2736
   73WAT     H2  431   2.642   2.877   0.399 -0.7853  1.0579  1.1384
   74WAT      O  432   3.029   5.154   2.040  0.4780  0.1021  0.9246
   74WAT     H1  433   3.031   5.093   2.114 -0.1699 -2.3717 -0.9588
   74WAT     H2  434   2.951   5.207   2.055  2.1481  2.0982  3.6822
   75WAT      O  435   0.597   4.978   3.855  0.0401 -0.0234 -0.2461
   75WAT     H1  436   0.556   4.903   3.897 -0.2568  0.1337 -0.2510
   75WAT     H2  437   0.527   5.018   3.804  0.8380 -1.3454 -2.5137
   76WAT      O  438   4.392   3.441   2.836  0.1079 -0.2900  0.0804
   76WAT     H1  439   4.389   3.527   2.879  1.2341  0.9711 -2.1657
   76WAT     H2  440   4.322   3.445   2.771  0.9271 -0.5749 -0.8417
   77WAT      O  441   0.361   2.368   1.283 -0.1220 -0.4602  0.4821
   77WAT     H1  442   0.291   2.405   1.229 -1.0269 -0.6868  1.4617
   77WAT     H2  443   0.387   2.440   1.340  0.0723 -0.5373  0.4922
   78WAT      O  444   0.763   1.424   0.284 -0.4090  0.0860  0.4017
   78WAT     H1  445   0.671   1.448   0.266 -0.7485 -1.4087  0.0239
   78WAT     H2  446   0.760   1.380   0.369  0.0948  0.7389  0.7636
   79WAT      O  447   1.967   5.600   3.257  0.2742 -0.1807  0.0653
   79WAT     H1  448   1.932   5.512   3.239  1.4509 -0.2281 -2.3868
   79WAT     H2  449   1.909   5.659   3.208  1.2333  0.1107 -0.7405
   80WAT      O  450   4.808   3.295   3.888  0.0880 -0.5061  0.3887
   80WAT     H1  451   4.750   3.253   3.952  0.9744 -0.5204  1.2037
   80WAT     H2  452   4.796   3.243   3.809 -0.9802 -0.5340  0.5499
   81WAT      O  453   4.541   2.431   2.804 -0.1935 -0.2617 -0.1249
   81WAT     H1  454   4.576   2.481   2.879  0.8996  0.1920 -0.9135
   81WAT     H2  455   4.597   2.354   2.799 -1.3768 -1.1903  0.5910
   82WAT      O  456   4.401   2.146   1.696  0.3128 -0.2785 -0.2193
   82WAT     H1  457   4.428   2.211   1.631 -0.3228  0.3112  0.0965
   82WAT     H2  458   4.483   2.115   1.734  0.6589 -0.1776 -0.8630
   83WAT      O  459   2.361   4.704   2.513  0.2244 -0.0176  0.9699
   83WAT     H1  460   2.428   4.654   2.560 -0.0850 -0.4849  0.9203
   83WAT     H2  461   2.350   4.657   2.430  0.0144  0.2032  0.8727
   84WAT      O  462   2.951   3.445   5.107 -0.0289  0.0610  0.4311
   84WAT     H1  463   2.953   3.419   5.199  1.6504  2.0066  1.0160
   84WAT     H2  464   2.870   3.496   5.098  0.5148  1.0843  1.2188
   85WAT      O  465   4.604   0.195   1.586 -0.2223  0.1212 -0.2672
   85WAT     H1  466   4.533   0.239   1.540 -0.7228 -0.8884 -0.4764
   85WAT     H2  467   4.630   0.257   1.654 -1.8242  0.2021  0.3137
   86WAT      O  468   0.034   3.135   4.990 -0.0812  0.1803  0.0708
   86WAT     H1  469   0.080   3.093   5.063  0.0589  0.8818  0.3941
   86WAT     H2  470   0.047   3.228   5.005  0.6368  0.3181 -1.3037
   87WAT      O  471   3.391   0.959   3.413  0.2588  0.5585 -0.6900
   87WAT     H1  472   3.331   0.934   3.484 -2.7150  1.5876 -2.6624
   87WAT     H2  473   3.415   1.049   3.434  1.0042  0.2113  0.0024
   88WAT      O  474   2.729   2.268   4.425  0.4019  0.4077  0.0706
   88WAT     H1  475   2.763   2.329   4.360  0.2137  0.9771  0.4953
   88WAT     H2  476   2.779   2.287   4.504 -0.0128  0.3634  0.3485
   89WAT      O  477   3.209   3.628   3.919 -0.5919  0.4090  0.1788
   89WAT     H1  478   3.131   3.583   3.952 -0.5497  0.9115  0.9979
   89WAT     H2  479   3.194   3.637   3.825 -1.2588 -0.0082  0.2404
   90WAT      O  480   4.059   4.745   2.127 -0.4782  0.2411 -0.2686
   90WAT     H1  481   4.144   4.788   2.142  0.2747 -0.8366 -1.2198
   90WAT     H2  482   4.023   4.790   2.051 -0.6535  0.5521 -0.0014
   91WAT      O  483   4.018   1.770   4.177  0.6743 -0.2421  0.6819
   91WAT     H1  484   3.955   1.806   4.239  0.2635  0.0928  0.0847
   91WAT     H2  485   3.968   1.703   4.129  1.0976 -0.7742  0.9735
   92WAT      O  486   3.673   4.947   4.231 -0.2235  0.1487  0.5569
   92WAT     H1  487   3.683   4.914   4.320 -0.8833  0.8217  0.8920
   92WAT     H2  488   3.675   4.868   4.176  2.0537 -0.1291  0.9664
   93WAT      O  489   3.159   2.217   3.475  0.1460 -0.0009 -0.0266
   93WAT     H1  490   3.079   2.183   3.435 -0.6498 -2.2434  3.0354
   93WAT     H2  491   3.157   2.311   3.457 -4.0830  0.3738  1.1288
   94WAT      O  492   4.914   2.317   4.889 -0.0655  0.5528  0.0813
   94WAT     H1  493   4.875   2.230   4.899 -3.1097  1.9394  2.0394
   94WAT     H2  494   4.938   2.342   4.979 -0.5517  2.2251 -0.2219
   95WAT      O  495   1.019   3.776   1.543 -0.1923  0.2760 -0.5845
   95WAT     H1  496   1.059   3.706   1.491  1.9539  0.0470  1.2355
   95WAT     H2  497   1.086   3.845   1.546 -0.6620  0.6973  0.9978
   96WAT      O  498   4.427   3.200   0.396 -0.6319  0.4293  0.3980
   96WAT     H1  499   4.376   3.272   0.358 -0.8486 -0.2088 -0.5700
   96WAT     H2  500   4.361   3.135   0.422 -0.5068  0.9564  2.1534
   97WAT      O  501   2.695   2.384   5.065  0.1502 -0.7116 -0.2431
   97WAT     H1  502   2.607   2.419   5.071 -0.3439 -2.0122  0.5509
   97WAT     H2  503   2.688   2.311   5.003  0.5345 -1.1857  0.2601
   98WAT      O  504   1.423   1.982   2.287  0.4217  0.1679  0.0713
   98WAT     H1  505   1.447   1.981   2.194  1.6383 -1.3587  0.3618
   98WAT     H2  506   1.341   1.933   2.291  0.5903 -0.1376 -0.1513
   99WAT      O  507   3.693   5.463   2.639 -0.1067  0.2107  0.6043
   99WAT     H1  508   3.627   5.419   2.692  1.4222 -0.2658  2.2004
   99WAT     H2  509   3.732   5.527   2.698  1.6513 -0.3323  0.0832
  100WAT      O  510   4.241   4.054   2.768 -0.2681 -0.1414 -0.4192
  100WAT     H1  511   4.162   4.015   2.730 -2.6299 -0.0564  3.7162
  100WAT     H2  512   4.249   4.138   2.724 -1.5271 -0.7828 -2.0128
  101WAT      O  513   3.512   0.349   3.665 -0.1897  0.3921 -0.3761
  101WAT     H1  514   3.549   0.395   3.740  0.3894 -0.0461 -0.3857
  101WAT     H2  515   3.533   0.404   3.590 -2.5897  1.9374 -0.0520
  102WAT      O  516   1.771   0.212   3.452 -0.2395 -0.3886 -0.1865
  102WAT     H1  517   1.816   0.233   3.370 -0.5039 -0.1417 -0.2736
  102WAT     H2  518   1.705   0.281   3.461 -0.8942 -0.9902 -0.2912
  103WAT      O  519   2.589   4.638   4.400  0.0204  0.6190  0.2044
  103WAT     H1  520   2.525   4.663   4.332 -1.1376  0.4316  1.1953
  103WAT     H2  521   2.543   4.575   4.455  1.3933 -0.2488  0.4178
  104WAT      O  522   1.624   3.194   3.000 -0.2275  0.2687  0.0348
  104WAT     H1  523   1.572   3.260   3.045 -1.3409  0.5934 -1.6310
  104WAT     H2  524   1.601   3.204   2.908 -0.7129 -2.6642 -0.2611
  105WAT      O  525   4.430   3.975   4.823 -0.2077  0.2300 -0.0056
  105WAT     H1  526   4.423   4.068   4.844  1.7262  0.2036  1.0567
  105WAT     H2  527   4.376   3.932   4.889 -2.0945  0.6220 -1.2461
  106WAT      O  528   0.297   3.932   0.930 -0.3615 -0.1659  0.7028
  106WAT     H1  529   0.326   3.848   0.965  0.5363 -0.3080 -0.3374
  106WAT     H2  530   0.372   3.990   0.939 -0.7025  0.2976  0.6392
  107WAT      O  531   3.770   2.247   4.107 -0.0715  0.1491 -0.4292
  107WAT     H1  532   3.823   2.202   4.173  0.9815  1.5864 -0.2458
  107WAT     H2  533   3.704   2.182   4.082  0.2179 -0.8393  1.1731
  108WAT      O  534   4.493   3.202   4.316 -0.0910  0.3358 -0.2503
  108WAT     H1  535   4.406   3.164   4.316 -0.6173  1.4558 -1.6787
  108WAT     H2  536   4.552   3.127   4.308 -1.0124 -0.3105 -1.2149
  109WAT      O  537   4.117   0.319   3.114 -0.2088 -0.1539 -0.0058
  109WAT     H1  538   4.196   0.296   3.163 -0.1235 -0.4244 -0.2660
  109WAT     H2  539   4.127   0.412   3.094  0.4741 -0.3886 -0.8168
  110WAT      O  540   2.308   2.252   1.281 -0.1357  0.0641 -0.3276
  110WAT     H1  541   2.373   2.317   1.255 -0.6844  0.8988  0.3377
  110WAT     H2  542   2.337   2.171   1.240  1.9013  0.1793  0.7752
  111WAT      O  543   1.503   3.999   1.120  0.6906  0.1001 -0.3447
  111WAT     H1  544   1.447   3.957   1.055 -0.3012 -0.4656  0.8471
  111WAT     H2  545   1.478   4.091   1.118 -1.2458 -0.3413  1.0661
  112WAT      O  546   4.115   2.082   0.610 -0.5117  0.3757 -0.0161
  112WAT     H1  547   4.180   2.139   0.569  0.8045 -1.3874 -0.4669
  112WAT     H2  548   4.037   2.093   0.555 -0.0938  1.2414 -0.4671
  113WAT      O  549   4.369   1.742   3.248 -0.3550 -0.5519  0.3239
  113WAT     H1  550   4.354   1.770   3.158  1.5215 -0.6628 -0.0561
  113WAT     H2  551   4.347   1.818   3.301 -0.9867 -0.3281 -0.2444
  114WAT      O  552   2.865   2.752   4.255 -0.3867  0.1204  0.2123
  114WAT     H1  553   2.956   2.780   4.246 -0.3254 -0.4689 -1.1133
  114WAT     H2  554   2.840   2.784   4.342  0.7304  1.2570  0.1579
  115WAT      O  555   1.490   2.044   5.753 -0.0235  0.3186 -0.0431
  115WAT     H1  556   1.501   2.138   5.764  1.1333  0.4064 -1.5773
  115WAT     H2  557   1.421   2.036   5.687 -1.0888  0.0342  1.0751
  116WAT      O  558   4.690   3.557   0.418  0.7036 -0.3345  0.0727
  116WAT     H1  559   4.771   3.607   0.415  1.4280 -1.2544  2.0883
  116WAT     H2  560   4.713   3.472   0.380  0.4606 -0.3136 -0.1186
  117WAT      O  561   2.515   3.366   1.155  0.0842 -0.0624  0.4260
  117WAT     H1  562   2.465   3.284   1.160 -0.7363  0.3276 -0.8841
  117WAT     H2  563   2.598   3.340   1.117 -0.3633 -0.2211 -0.4651
  118WAT      O  564   0.215   3.796   4.499 -0.0392  0.4408  0.1321
  118WAT     H1  565   0.294   3.743   4.508 -0.2418 -0.0983 -0.9762
  118WAT     H2  566   0.243   3.885   4.517  0.5136  0.0849  1.1163
  119WAT      O  567   2.163   3.007   5.038  0.1589  0.1197  0.0669
  119WAT     H1  568   2.151   3.089   4.990 -0.5027  0.5334  0.9219
  119WAT     H2  569   2.249   3.016   5.080 -0.6671  1.1767  1.6382
  120WAT      O  570   4.639   2.522   3.434 -0.1888  0.0575  0.0825
  120WAT     H1  571   4.705   2.468   3.390 -0.5829  0.7386 -1.3995
  120WAT     H2  572   4.597   2.571   3.363 -0.8401  1.2141  1.2285
  121WAT      O  573   0.461   5.273   2.504 -0.0531  0.1700 -0.5122
  121WAT     H1  574   0.516   5.344   2.470 -0.2654  0.4148 -0.3518
  121WAT     H2  575   0.481   5.198   2.448  0.6461  0.1759 -0.2797
  122WAT      O  576   0.531   3.783   0.723 -0.0400  0.2393  0.0595
  122WAT     H1  577   0.623   3.775   0.698  0.3629  0.4207  1.4231
  122WAT     H2  578   0.513   3.877   0.722  0.2193  0.3105  1.2351
  123WAT      O  579   1.646   4.498   3.275  0.0695 -0.4798  0.3751
  123WAT     H1  580   1.611   4.531   3.358 -2.9157 -0.4686 -0.7746
  123WAT     H2  581   1.716   4.560   3.252 -1.4279  1.5942  1.1681
  124WAT      O  582   1.562   4.429   5.787 -0.7223  0.9881 -0.0207
  124WAT     H1  583   1.587   4.494   5.852  0.1642 -0.7215  1.4512
  124WAT     H2  584   1.468   4.419   5.797 -0.8234  1.8276 -0.0784
  125WAT      O  585   1.688   3.413   0.637  0.0084 -0.1200 -0.2670
  125WAT     H1  586   1.729   3.491   0.599  0.0399 -0.7576 -1.6038
  125WAT     H2  587   1.756   3.376   0.694  0.5247  0.0352 -0.7657
  126WAT      O  588   2.007   2.795   4.168 -0.3406 -0.2259 -0.1594
  126WAT     H1  589   1.959   2.729   4.217 -0.8458 -1.7820 -2.5830
  126WAT     H2  590   1.944   2.867   4.156  0.2071  0.8211  2.4630
  127WAT      O  591   3.201   1.763   5.610 -0.0479  0.2222 -0.2067
  127WAT     H1  592   3.196   1.760   5.706 -0.5795  0.6156 -0.2158
  127WAT     H2  593   3.110   1.754   5.581  0.1741 -0.6108 -0.7026
  128WAT      O  594   3.550   4.080   3.889 -0.2313  0.1545 -0.6319
  128WAT     H1  595   3.495   4.151   3.924 -0.6354 -1.1804  1.5988
  128WAT     H2  596   3.635   4.121   3.875 -0.6862  1.2849 -0.2258
  129WAT      O  597   1.556   4.555   4.414  0.0249  0.3476  0.0272
  129WAT     H1  598   1.552   4.511   4.330 -1.2339  0.3720  0.0594
  129WAT     H2  599   1.647   4.545   4.442 -0.0958 -1.7966 -0.1813
  130WAT      O  600   4.158   3.662   3.411  0.1013  0.3793  0.0312
  130WAT     H1  601   4.196   3.700   3.331 -2.4408  1.1931 -0.8949
  130WAT     H2  602   4.213   3.585   3.429  1.2017  0.5797 -2.0772
  131WAT      O  603   3.358   3.135   5.238 -0.1623  0.7585  0.4976
  131WAT     H1  604   3.341   3.134   5.144  0.6892 -0.0781  0.3296
  131WAT     H2  605   3.407   3.054   5.254  1.6683  1.9626  1.2864
  132WAT      O  606   2.798   3.241   5.451 -0.5764  0.0245  0.4194
  132WAT     H1  607   2.802   3.212   5.360 -2.4609 -0.8006  0.5597
  132WAT     H2  608   2.843   3.171   5.499  0.6669  0.5937  0.1341
  133WAT      O  609   3.109   3.568   0.348 -0.2656 -0.4997  0.1661
  133WAT     H1  610   3.164   3.541   0.274  1.5433  0.2110  1.1706
  133WAT     H2  611   3.079   3.656   0.325  1.0269  0.0864  0.6121
  134WAT      O  612   0.280   3.298   5.765  0.2076 -0.0064 -0.4573
  134WAT     H1  613   0.267   3.203   5.765 -1.4167  0.1751 -1.6423
  134WAT     H2  614   0.264   3.325   5.675  1.3079  1.3321 -0.2873
  135WAT      O  615   4.626   3.852   0.488  0.0808  0.2688  0.2811
  135WAT     H1  616   4.542   3.812   0.466 -0.0524  0.4465  0.4590
  135WAT     H2  617   4.627   3.855   0.583 -0.6080  2.0957  0.2796
  136WAT      O  618   3.813   2.123   4.610 -0.1971 -0.6432  0.0178
  136WAT     H1  619   3.903   2.109   4.637  0.0375  1.0793  0.2531
  136WAT     H2  620   3.774   2.173   4.681 -0.9430 -0.1691 -0.7020
  137WAT      O  621   4.999   1.788   1.055  0.2085  0.5530 -0.0721
  137WAT     H1  622   4.926   1.727   1.055  0.8034 -0.1712  0.1307
  137WAT     H2  623   4.975   1.854   0.989 -1.2473  1.1147  0.9691
  138WAT      O  624   1.801   2.406   0.521 -0.0197  0.4276  0.2180
  138WAT     H1  625   1.823   2.335   0.581 -1.0347  1.4029  1.8098
  138WAT     H2  626   1.883   2.424   0.476  1.2196  0.6489  2.4104
  139WAT      O  627   1.157   5.628   3.669  0.0465  0.0076  0.2344
  139WAT     H1  628   1.101   5.581   3.730  0.3258  1.0515  1.3423
  139WAT     H2  629   1.246   5.612   3.701  0.1765  0.7887  0.3018
  140WAT      O  630   3.444   3.421   5.153 -0.1109  0.0341  0.0497
  140WAT     H1  631   3.392   3.353   5.197  0.3452 -0.6987 -0.5402
  140WAT     H2  632   3.389   3.499   5.159  0.5262  0.4068  3.2927
  141WAT      O  633   2.670   3.004   4.392 -0.2295 -0.2468 -0.4475
  141WAT     H1  634   2.615   3.039   4.322 -0.8118 -0.2173  0.0131
  141WAT     H2  635   2.756   3.043   4.376 -0.7526  1.0877 -0.1986
  142WAT      O  636   1.917   2.415   4.746 -0.3462  0.2481  0.3157
  142WAT     H1  637   1.967   2.496   4.751 -1.2306  0.8074  0.3423
  142WAT     H2  638   1.889   2.399   4.836 -3.9381  2.3902 -0.2029
  143WAT      O  639   3.070   1.273   1.011 -0.6948  0.3661 -0.1480
  143WAT     H1  640   3.100   1.185   1.037 -2.0317 -0.1046 -0.0946
  143WAT     H2  641   3.150   1.320   0.990  0.0709 -0.8200 -0.0214
  144WAT      O  642   4.743   5.168   3.095 -0.2317  0.0041  0.2262
  144WAT     H1  643   4.671   5.123   3.052 -0.6114 -0.5288  1.3870
  144WAT     H2  644   4.795   5.203   3.023 -0.0642 -2.0458 -0.7228
  145WAT      O  645   2.874   3.699   3.947 -0.1890  0.2027  0.1031
  145WAT     H1  646   2.926   3.626   3.980 -1.7387 -1.7596 -1.5206
  145WAT     H2  647   2.843   3.743   4.026 -0.6771 -2.0064  1.2431
  146WAT      O  648   4.249   1.277   1.508 -0.3178  0.2120 -0.6847
  146WAT     H1  649   4.316   1.297   1.573 -0.8745 -1.0567  0.3455
  146WAT     H2  650   4.265   1.338   1.436  0.5019  1.4597  0.5188
  147WAT      O  651   0.061   3.201   4.321 -0.2885 -0.3209  0.1989
  147WAT     H1  652  -0.025   3.189   4.281 -0.9398 -0.4824  1.5605
  147WAT     H2  653   0.043   3.246   4.403  1.0177  0.2785  0.1792
  148WAT      O  654   1.361   1.115   4.108 -0.5615  0.2733  0.0096
  148WAT     H1  655   1.312   1.152   4.182 -0.2555 -0.0462  0.3719
  148WAT     H2  656   1.438   1.075   4.147  0.3271  1.3136 -0.6146
  149WAT      O  657   0.733   2.345   1.780  0.1645  0.0741  0.6206
  149WAT     H1  658   0.791   2.335   1.855  0.1957 -0.4208  0.5333
  149WAT     H2  659   0.774   2.293   1.711 -0.9872 -1.2634  0.9109
  150WAT      O  660   4.648   5.244   2.404  0.1873  0.1293  0.1088
  150WAT     H1  661   4.721   5.299   2.379  1.8346 -0.9820  2.1522
  150WAT     H2  662   4.589   5.302   2.451  0.6996  0.6335  0.1320
  151WAT      O  663   1.818   1.182   1.495  0.0237 -0.2356  0.1712
  151WAT     H1  664   1.842   1.133   1.574  0.3892  0.2271  0.3487
  151WAT     H2  665   1.788   1.267   1.528 -1.8106 -0.7488 -0.0410
  152WAT      O  666   4.013   4.427   1.434 -0.3334  0.1318  0.2740
  152WAT     H1  667   3.957   4.488   1.483  0.9489  1.0847  0.6106
  152WAT     H2  668   4.079   4.399   1.497  1.1035  1.0465 -0.7661
  153WAT      O  669   4.140   4.794   1.348  0.0565 -0.6261 -0.4271
  153WAT     H1  670   4.122   4.736   1.274  0.9038 -0.7884 -0.5196
  153WAT     H2  671   4.062   4.849   1.356 -0.0803 -0.6721 -1.3802
  154WAT      O  672   2.503   0.651   4.266 -0.4343  0.0123  0.2494
  154WAT     H1  673   2.518   0.584   4.200 -3.8958 -0.3217 -0.3979
  154WAT     H2  674   2.551   0.728   4.235 -1.3531 -0.3673 -2.2962
  155WAT      O  675   3.746   4.519   1.535  0.5376  0.0877 -0.3636
  155WAT     H1  676   3.678   4.562   1.588  1.6441  0.6297  0.6806
  155WAT     H2  677   3.770   4.441   1.586  0.6620 -0.1194 -0.7398
  156WAT      O  678   0.493   2.992   1.734  0.0828 -0.2646  0.2542
  156WAT     H1  679   0.443   3.022   1.810 -0.4011  0.1036 -0.2017
  156WAT     H2  680   0.577   3.039   1.740 -1.0965  2.2605 -1.1203
  157WAT      O  681   1.882   0.088   1.463 -0.0458  0.0367 -0.5387
  157WAT     H1  682   1.823   0.014   1.478  0.6745 -0.6002 -0.7992
  157WAT     H2  683   1.919   0.073   1.376  1.9132 -0.5820  0.3475
  158WAT      O  684   3.998   4.877   2.451  0.4083  0.0572 -0.6655
  158WAT     H1  685   4.029   4.790   2.427  2.3958  0.4331  0.3715
  158WAT     H2  686   4.076   4.923   2.482  0.0525  3.1883 -3.8335
  159WAT      O  687   2.926   3.084   0.420 -0.4499  0.0103 -0.5560
  159WAT     H1  688   2.926   3.124   0.508 -0.7200 -0.3677 -0.3813
  159WAT     H2  689   2.853   3.022   0.423 -0.0086 -0.5196 -0.8174
  160WAT      O  690   0.037   5.531   1.581  0.0188 -0.1402  0.3604
  160WAT     H1  691  -0.004   5.575   1.655  1.0649  0.3191  0.6729
  160WAT     H2  692   0.098   5.595   1.545  1.2795 -1.1772  0.5892
  161WAT      O  693   4.227   2.804   5.766  0.3795 -0.4240 -0.8222
  161WAT     H1  694   4.260   2.892   5.748 -0.1777  0.0445  0.3105
  161WAT     H2  695   4.212   2.766   5.680  5.3915 -1.3492 -1.6296
  162WAT      O  696   2.741   5.555   4.076 -0.2932  0.0139  0.2054
  162WAT     H1  697   2.653   5.593   4.073 -0.6992 -0.9659 -1.1243
  162WAT     H2  698   2.799   5.629   4.056 -0.7238  0.8269  1.8126
  163WAT      O  699   3.686   3.627   4.096  0.4904  0.1102 -0.2995
  163WAT     H1  700   3.652   3.642   4.008 -2.4467 -1.1897  0.4758
  163WAT     H2  701   3.613   3.588   4.144  2.5319 -0.9398  2.2398
  164WAT      O  702   2.174   3.276   2.473  0.1763  0.1759  0.0077
  164WAT     H1  703   2.138   3.214   2.410 -2.1946  0.7717  0.6823
  164WAT     H2  704   2.147   3.362   2.441  1.7136  0.7453  0.1528
  165WAT      O  705   2.881   2.147   3.358 -0.4140  0.0452 -0.0962
  165WAT     H1  706   2.812   2.201   3.396 -1.0967 -1.1109  0.3485
  165WAT     H2  707   2.902   2.191   3.275 -1.6938  0.4080 -0.2547
  166WAT      O  708   3.870   0.862   1.093 -0.1280 -0.0491  0.2458
  166WAT     H1  709   3.875   0.957   1.078 -1.5141 -0.1653 -1.2970
  166WAT     H2  710   3.940   0.826   1.039  0.3798  0.0757  0.8082
  167WAT      O  711   0.653   4.269   3.331 -0.1100 -0.2611  0.0829
  167WAT     H1  712   0.710   4.279   3.408 -0.9969 -2.8409  1.1910
  167WAT     H2  713   0.571   4.311   3.357 -0.3268 -0.9144  0.4855
  168WAT      O  714   1.978   4.820   2.357  0.2448  0.4701  0.4720
  168WAT     H1  715   1.945   4.865   2.280  0.1972 -0.0854  0.1628
  168WAT     H2  716   2.064   4.860   2.373  0.1237  0.7966  0.3177
  169WAT      O  717   3.566   3.741   1.582  0.9401 -0.1294 -0.2681
  169WAT     H1  718   3.577   3.649   1.557 -1.5816 -0.5044 -0.2521
  169WAT     H2  719   3.595   3.744   1.674 -2.1979 -1.8103  0.9438
  170WAT      O  720   3.872   4.538   2.170  0.1021  0.5001  0.4654
  170WAT     H1  721   3.908   4.626   2.173  1.6291 -0.1279  2.1867
  170WAT     H2  722   3.903   4.503   2.086  1.3366  0.8644  0.7499
  171WAT      O  723   0.105   4.814   2.777 -0.4045 -0.5653  0.4894
  171WAT     H1  724   0.093   4.900   2.737 -0.4628 -1.4861 -1.5801
  171WAT     H2  725   0.194   4.815   2.811 -0.9924  0.9098  2.1290
  172WAT      O  726   2.877   0.414   1.659 -0.6100 -0.5227  0.6915
  172WAT     H1  727   2.813   0.484   1.669 -0.2317 -0.0568 -0.0708
  172WAT     H2  728   2.955   0.447   1.703  0.2404  0.4584 -1.3978
  173WAT      O  729   2.538   4.591   2.704  0.4349 -0.2643  0.1803
  173WAT     H1  730   2.500   4.503   2.709  2.1157 -0.9792  0.9589
  173WAT     H2  731   2.630   4.576   2.683  0.3690  1.4282 -1.5517
  174WAT      O  732   4.264   0.942   1.907 -0.6064  0.3609 -0.0708
  174WAT     H1  733   4.219   1.026   1.898 -1.9106  0.0050  2.1673
  174WAT     H2  734   4.352   0.965   1.936 -0.5999  0.9973 -0.5796
  175WAT      O  735   1.622   2.607   5.065  0.2857 -0.3929 -0.2929
  175WAT     H1  736   1.595   2.698   5.058 -0.0929 -0.5223 -0.5537
  175WAT     H2  737   1.588   2.579   5.151  0.5867 -0.2280 -0.1213
  176WAT      O  738   2.711   4.837   3.399 -0.4749  0.1158 -0.4726
  176WAT     H1  739   2.730   4.921   3.441  1.0489 -0.6769  0.5131
  176WAT     H2  740   2.783   4.779   3.426 -0.5515 -1.0408 -2.5123
  177WAT      O  741   0.796   3.621   1.659  0.0721 -0.2439 -0.1274
  177WAT     H1  742   0.864   3.678   1.623  0.0872 -0.1375  0.0676
  177WAT     H2  743   0.721   3.679   1.674 -0.4211 -0.5518 -1.3109
  178WAT      O  744   4.382   3.724   2.954  1.2697  0.1294  0.1659
  178WAT     H1  745   4.364   3.814   2.927 -0.4002 -0.0758  0.5349
  178WAT     H2  746   4.478   3.719   2.954  1.4162  2.0397  0.6287
  179WAT      O  747   1.320   4.331   5.406 -0.2273 -0.6475  0.7154
  179WAT     H1  748   1.327   4.318   5.311 -2.0662 -1.8764  0.6962
  179WAT     H2  749   1.378   4.405   5.424  0.3100 -0.4978 -1.3314
  180WAT      O  750   3.779   0.913   3.308  0.1343  0.8302  0.6006
  180WAT     H1  751   3.855   0.871   3.268 -0.2077 -0.4153  1.2047
  180WAT     H2  752   3.752   0.979   3.244  0.9974  0.4784 -0.1531
  181WAT      O  753   2.657  -0.006   1.563  0.5771 -0.1245 -0.7725
  181WAT     H1  754   2.741  -0.017   1.519  0.6985 -1.3257 -0.2479
  181WAT     H2  755   2.667   0.076   1.613  0.8714  0.5820 -1.9423
  182WAT      O  756   3.533   2.995   2.918  0.4422  0.4171 -0.2488
  182WAT     H1  757   3.491   2.970   2.836  1.4124 -0.0134 -0.6272
  182WAT     H2  758   3.462   2.994   2.983  0.1862 -2.2311 -0.4722
  183WAT      O  759   4.128   4.029   4.747  0.5270 -0.0473  0.1006
  183WAT     H1  760   4.036   4.046   4.769  1.3706  2.6302  2.2091
  183WAT     H2  761   4.157   3.968   4.815  0.6267  0.2222  0.3041
  184WAT      O  762   3.166   5.151   2.568 -0.1885 -0.3342  0.1005
  184WAT     H1  763   3.115   5.192   2.498 -0.8796 -0.8294  0.2979
  184WAT     H2  764   3.133   5.191   2.649  1.5340  1.2289  0.1080
  185WAT      O  765   0.372   3.396   4.208 -0.2357 -0.2489 -0.1663
  185WAT     H1  766   0.356   3.484   4.173 -0.6023 -0.1911  0.1465
  185WAT     H2  767   0.465   3.380   4.192  0.3187  0.9919  1.5677
  186WAT      O  768   4.571   0.412   1.822 -0.2511 -1.0119  0.1594
  186WAT     H1  769   4.648   0.465   1.806 -0.7273 -0.3886 -0.1288
  186WAT     H2  770   4.503   0.452   1.767 -0.5254 -2.1334 -0.3479
  187WAT      O  771   2.716   5.540   3.365  0.3617 -0.0385 -0.1354
  187WAT     H1  772   2.708   5.633   3.388  0.3064  0.2644 -1.3359
  187WAT     H2  773   2.804   5.533   3.328  0.5026 -0.5450  0.2916
  188WAT      O  774   1.810   5.635   3.568  0.5911  0.5369 -0.1215
  188WAT     H1  775   1.792   5.724   3.538 -1.2749  0.1968 -0.0723
  188WAT     H2  776   1.766   5.579   3.505 -1.0762 -0.2533  1.6630
  189WAT      O  777   1.175   1.917   1.367 -0.6116  0.3146  0.0714
  189WAT     H1  778   1.085   1.896   1.390 -0.0569  0.0508  2.2654
  189WAT     H2  779   1.224   1.837   1.385  0.7134  1.6709  3.4444
  190WAT      O  780   1.849   4.904   3.301  0.0799 -0.2069 -0.1940
  190WAT     H1  781   1.941   4.929   3.312 -0.1083 -0.2956  2.0016
  190WAT     H2  782   1.802   4.988   3.297  0.1072 -0.1545  0.4309
  191WAT      O  783   0.208   0.184   2.247 -0.2641 -0.1918  0.2756
  191WAT     H1  784   0.231   0.135   2.326  0.4671  0.7231  0.6411
  191WAT     H2  785   0.112   0.186   2.248 -0.2917 -1.1485  0.5317
  192WAT      O  786   2.802   3.873   4.150 -0.4952 -0.2275  0.0226
  192WAT     H1  787   2.848   3.880   4.234  0.6454 -0.2658 -0.5847
  192WAT     H2  788   2.771   3.962   4.133 -1.7837 -0.4395  1.0295
  193WAT      O  789   2.522   2.068   3.414 -0.5703  0.3427 -0.5880
  193WAT     H1  790   2.588   2.136   3.426 -0.4139  0.1877 -0.5745
  193WAT     H2  791   2.567   1.987   3.434 -0.3497  0.0894 -1.9861
  194WAT      O  792   3.652   4.296   2.906  0.1196  0.1392 -0.1676
  194WAT     H1  793   3.621   4.224   2.961  0.3738  0.3691  0.2859
  194WAT     H2  794   3.739   4.269   2.877  1.2590  1.2339  1.9351
  195WAT      O  795   3.304   2.999   3.101 -0.4242 -0.3618 -0.2427
  195WAT     H1  796   3.243   3.072   3.092  0.2631  0.0477 -2.1325
  195WAT     H2  797   3.265   2.928   3.050  0.1878 -0.4243 -0.6321
  196WAT      O  798   2.864   1.057   3.596  0.0961 -0.0409 -0.2887
  196WAT     H1  799   2.820   0.974   3.613 -0.2739 -0.1898 -1.8824
  196WAT     H2  800   2.805   1.106   3.539  1.0737  0.5997 -0.7946
  197WAT      O  801   4.551   4.203   1.567 -0.7446  0.0967  0.3259
  197WAT     H1  802   4.601   4.260   1.625 -0.8528  1.4241 -0.8300
  197WAT     H2  803   4.617   4.154   1.518 -0.5847  0.9772 -0.3557
  198WAT      O  804   1.668   2.740   4.587  0.0423 -0.8444  0.2621
  198WAT     H1  805   1.580   2.720   4.620  0.1081 -1.5742  0.0154
  198WAT     H2  806   1.725   2.724   4.662 -0.2638  2.4040  1.3392
  199WAT      O  807   4.531   2.373   0.221  0.2114  0.3586 -0.2946
  199WAT     H1  808   4.506   2.464   0.239  0.0562  0.1612  0.5233
  199WAT     H2  809   4.625   2.370   0.239  0.2756  0.4289 -0.6165
  200WAT      O  810   0.063   1.609   3.990  0.3812 -0.0137 -0.0497
  200WAT     H1  811   0.100   1.527   3.956  0.2155  0.4153 -1.2986
  200WAT     H2  812   0.023   1.584   4.074  1.2482 -0.9948  0.0876
  201WAT      O  813   0.321   2.300   5.332 -0.7154 -0.0086 -0.2950
  201WAT     H1  814   0.352   2.354   5.260 -1.3032 -0.3002 -0.7741
  201WAT     H2  815   0.389   2.234   5.344 -0.4774  0.2191 -0.3857
  202WAT      O  816   3.216   2.463   0.854  0.7570 -0.7923  0.5838
  202WAT     H1  817   3.298   2.511   0.863  0.1779  0.6190 -0.9212
  202WAT     H2  818   3.237   2.389   0.798  1.0352 -0.4557  0.2357
  203WAT      O  819   4.765   3.818   3.596 -0.1280 -0.7708 -0.6478
  203WAT     H1  820   4.757   3.752   3.665 -0.0808  0.0629  0.1690
  203WAT     H2  821   4.791   3.768   3.518 -0.5923 -1.7774 -0.1716
  204WAT      O  822   0.849   0.599   1.336  0.8128 -0.2484  0.4542
  204WAT     H1  823   0.929   0.550   1.358 -0.1222 -0.9203  2.5977
  204WAT     H2  824   0.850   0.673   1.396  0.9061  0.9746 -1.0209
  205WAT      O  825   1.527   4.338   1.446 -0.1384 -0.0220 -0.2677
  205WAT     H1  826   1.515   4.405   1.378 -1.5464  0.8953  0.8292
  205WAT     H2  827   1.593   4.279   1.410 -0.8408  0.4277 -2.4304
  206WAT      O  828   3.708   3.476   3.501  0.0805  0.1808 -0.0596
  206WAT     H1  829   3.767   3.524   3.443  0.2328  0.6906  0.5091
  206WAT     H2  830   3.766   3.418   3.551 -0.2433 -1.8170 -1.8467
  207WAT      O  831   4.484   4.591   1.733 -0.3938 -0.2149  0.3529
  207WAT     H1  832   4.430   4.623   1.660 -1.5837  0.6985  1.5752
  207WAT     H2  833   4.567   4.566   1.693 -0.3873  1.8995 -1.0865
  208WAT      O  834   3.464   4.117   1.311 -0.2481 -0.4869 -0.4691
  208WAT     H1  835   3.512   4.157   1.384  0.6593  1.4592 -2.0585
  208WAT     H2  836   3.529   4.061   1.269 -0.1428  0.0368 -1.0141
  209WAT      O  837   1.288   0.017   3.212  0.3697 -0.0029 -0.7577
  209WAT     H1  838   1.342   0.071   3.269  0.1256  0.6312 -1.1234
  209WAT     H2  839   1.252  -0.050   3.270 -0.6899  1.2246  0.0545
  210WAT      O  840   0.790   0.466   1.668  0.1598 -0.1636  0.0891
  210WAT     H1  841   0.720   0.412   1.704 -1.5823  2.2190  0.5380
  210WAT     H2  842   0.801   0.435   1.578 -1.0990 -0.9421  0.1818
  211WAT      O  843   0.161   4.644   2.102 -0.5016  0.5877  0.2581
  211WAT     H1  844   0.093   4.621   2.038 -1.0599  0.2031  0.9741
  211WAT     H2  845   0.154   4.739   2.111 -0.3736  0.6520 -0.3033
  212WAT      O  846   3.102   4.161   3.997  0.2218 -0.3738 -0.8544
  212WAT     H1  847   3.049   4.231   4.036 -0.3408 -1.8741  1.2641
  212WAT     H2  848   3.176   4.152   4.057  0.5747 -1.2258 -1.4134
  213WAT      O  849   0.595   2.583   2.347  0.3701 -0.3566 -0.2889
  213WAT     H1  850   0.579   2.673   2.318  2.9448 -0.0392 -1.0251
  213WAT     H2  851   0.517   2.534   2.320 -0.0162  1.1831 -2.1670
  214WAT      O  852   1.097   3.991   2.460  0.0858 -0.0358  0.0519
  214WAT     H1  853   1.035   3.936   2.509 -0.1331 -0.1013 -0.2994
  214WAT     H2  854   1.097   3.954   2.372  0.2779  0.2527 -0.0691
  215WAT      O  855   3.397   4.972   1.727 -0.6611 -0.2484  0.0047
  215WAT     H1  856   3.456   5.043   1.703 -0.5545 -0.2748  0.1891
  215WAT     H2  857   3.367   4.994   1.815 -0.9524 -0.2169 -0.0995
  216WAT      O  858   2.690   0.064   2.336 -0.1092  0.2797 -0.2668
  216WAT     H1  859   2.725   0.052   2.425 -1.2141 -0.7903  0.0569
  216WAT     H2  860   2.686  -0.025   2.301 -1.9389  0.4130 -0.4807
  217WAT      O  861   0.607   1.553   2.706 -0.3206 -0.0117  0.1694
  217WAT     H1  862   0.542   1.613   2.743 -0.1736 -0.5213  1.2727
  217WAT     H2  863   0.614   1.580   2.614 -0.8723  1.1128  0.4418
  218WAT      O  864   0.724   3.873   3.297  0.2909  0.3722 -0.0104
  218WAT     H1  865   0.780   3.796   3.287 -1.2275 -0.5190 -2.6219
  218WAT     H2  866   0.667   3.851   3.371  0.0277 -0.9709 -0.5869
  219WAT      O  867   3.355   4.852   2.020 -0.5820  0.8216 -0.3026
  219WAT     H1  868   3.314   4.805   1.949 -0.4719  0.0287  0.1461
  219WAT     H2  869   3.423   4.793   2.052 -0.4848  1.2549  0.3166
  220WAT      O  870   0.269   2.938   2.539 -1.0585 -0.3378  0.1684
  220WAT     H1  871   0.250   2.906   2.627  0.9639  0.2265  0.8587
  220WAT     H2  872   0.198   2.999   2.519 -0.2264  1.5441  2.4998
  221WAT      O  873   1.124   5.147   3.151 -0.0974  0.0003  0.2535
  221WAT     H1  874   1.106   5.060   3.114 -0.6512  1.0786 -2.1827
  221WAT     H2  875   1.219   5.154   3.151 -0.0617 -0.4464  0.0537
  222WAT      O  876   4.198   4.382   3.808 -0.5666 -0.1096  0.0587
  222WAT     H1  877   4.141   4.350   3.878 -1.3839  2.0118  0.4268
  222WAT     H2  878   4.152   4.360   3.728 -0.3664 -1.1818  0.2203
  223WAT      O  879   2.247   4.694   0.863  0.4491  0.2305  0.3865
  223WAT     H1  880   2.297   4.744   0.928  0.3836 -1.9723  2.2508
  223WAT     H2  881   2.163   4.740   0.856  2.1028  3.2332 -1.8287
  224WAT      O  882   4.226   2.658   3.253 -0.0055  0.6805 -0.3190
  224WAT     H1  883   4.150   2.683   3.200 -0.1588  2.1914  0.5599
  224WAT     H2  884   4.190   2.644   3.340  0.4949 -0.2099 -0.2447
  225WAT      O  885   3.178   4.324   1.052  0.1637 -0.0349  1.1007
  225WAT     H1  886   3.201   4.232   1.064  2.7113  0.1834 -1.2039
  225WAT     H2  887   3.254   4.372   1.085  0.4023  1.0613 -0.9223
  226WAT      O  888   0.500   2.470   3.914 -0.0230 -0.0574 -0.3080
  226WAT     H1  889   0.462   2.397   3.962 -0.0450  2.2767  3.6806
  226WAT     H2  890   0.426   2.508   3.866 -0.5598 -1.1794 -0.3858
  227WAT      O  891   2.411   4.234   3.262  0.2134  0.6063 -0.3422
  227WAT     H1  892   2.317   4.220   3.280  0.4866 -0.0791  0.6873
  227WAT     H2  893   2.419   4.328   3.249 -0.4696  0.8194  0.6275
  228WAT      O  894   4.930   4.584   2.719  0.0968 -0.0211 -0.0125
  228WAT     H1  895   4.983   4.660   2.744 -0.0232 -0.2052  0.8277
  228WAT     H2  896   4.880   4.562   2.798 -0.4052 -0.5345 -0.4612
  229WAT      O  897   0.219   0.629   2.154  0.2701 -0.0101 -0.2315
  229WAT     H1  898   0.132   0.590   2.150  0.2891 -0.0613 -0.1540
  229WAT     H2  899   0.212   0.698   2.220 -0.3030  1.4949 -1.7994
  230WAT      O  900   0.016   3.000   3.029 -0.2213  0.0989 -0.1576
  230WAT     H1  901   0.062   2.953   2.960  0.2843  1.4669 -0.7969
  230WAT     H2  902  -0.001   3.087   2.992  2.5526  1.9016  2.2806
  231WAT      O  903   4.905   5.451   1.987  0.2541 -0.2023 -0.5561
  231WAT     H1  904   4.946   5.372   1.951 -1.7466 -0.4636 -2.5827
  231WAT     H2  905   4.828   5.419   2.033  0.4468  0.4597  0.2468
  232WAT      O  906   4.667   4.942   1.387  0.2384  0.6420 -0.1614
  232WAT     H1  907   4.580   4.904   1.376  0.3270  0.3650  0.0690
  232WAT     H2  908   4.727   4.873   1.357  0.4385  0.2375  1.1131
  233WAT      O  909   3.604   0.062   1.927  0.1664  0.1383  0.5894
  233WAT     H1  910   3.622  -0.008   1.990 -1.1878  0.0576  0.9189
  233WAT     H2  911   3.541   0.024   1.866  1.2629  0.2980 -0.6992
  234WAT      O  912   4.311   3.868   3.919 -0.4446  0.3728  0.0065
  234WAT     H1  913   4.264   3.787   3.937 -0.4191  0.6957  1.7286
  234WAT     H2  914   4.393   3.859   3.968 -0.3848  1.3910  0.1061
  235WAT      O  915   3.844   3.777   4.906  0.3200 -0.4420 -0.2171
  235WAT     H1  916   3.940   3.772   4.915  0.4986  0.4856 -1.3999
  235WAT     H2  917   3.829   3.850   4.847 -1.1767 -0.1063  0.5312
  236WAT      O  918   4.854   2.805   3.674 -0.3965 -0.3879 -0.5821
  236WAT     H1  919   4.935   2.829   3.719 -0.7814 -0.6750  0.2850
  236WAT     H2  920   4.883   2.755   3.598  0.2544 -0.1629 -0.4930
  237WAT      O  921   2.830   3.285   3.880 -0.6518  0.4350 -0.0311
  237WAT     H1  922   2.809   3.273   3.787 -0.4554  1.8644 -0.2737
  237WAT     H2  923   2.863   3.199   3.908  0.2609  0.2525 -1.5426
  238WAT      O  924   1.327   5.439   1.513 -0.1875  0.2991  0.5454
  238WAT     H1  925   1.329   5.370   1.579  1.6076 -1.1734 -0.9078
  238WAT     H2  926   1.303   5.393   1.432 -1.1406  1.8159 -0.0715
  239WAT      O  927   0.509   4.123   1.994  0.0963 -0.4498  0.3694
  239WAT     H1  928   0.555   4.047   1.957 -1.5978 -0.9226 -0.8596
  239WAT     H2  929   0.514   4.189   1.925  1.1138  0.4229  1.2374
  240WAT      O  930   1.046   1.820   3.126 -0.0018  0.3370  0.0366
  240WAT     H1  931   1.029   1.911   3.150  2.1665  1.2584 -1.5564
  240WAT     H2  932   1.130   1.799   3.169 -0.9197 -1.2956  1.1745
  241WAT      O  933   1.980   4.068   5.330  0.5338 -0.6602 -0.4610
  241WAT     H1  934   1.981   4.139   5.394 -0.3169 -0.8931 -0.1758
  241WAT     H2  935   1.893   4.072   5.291  0.6614 -1.2190 -0.8163
  242WAT      O  936   3.024   0.657   1.937  0.6187 -0.3624 -0.4605
  242WAT     H1  937   2.978   0.708   2.003 -0.2479 -1.5157 -0.1241
  242WAT     H2  938   2.992   0.691   1.854  0.7631  0.2615 -0.2659
  243WAT      O  939   1.896   4.104   2.780  0.1168 -0.0997 -0.1315
  243WAT     H1  940   1.876   4.179   2.836  1.0722  0.6919 -0.8076
  243WAT     H2  941   1.989   4.114   2.760 -0.4573  0.3562 -2.8975
  244WAT      O  942   4.189   3.059   0.447 -0.6800  0.1954  0.1904
  244WAT     H1  943   4.149   2.990   0.500  0.5201 -0.0527  0.7996
  244WAT     H2  944   4.121   3.126   0.440 -1.5787 -0.6742  0.2878
  245WAT      O  945   2.058   1.238   3.244 -0.1492 -0.1608 -0.1966
  245WAT     H1  946   2.091   1.223   3.156 -1.7948 -1.4237 -0.6707
  245WAT     H2  947   2.107   1.312   3.277 -0.7634  1.5626 -2.8778
  246WAT      O  948   2.890   0.983   3.979  0.1581  0.0674 -0.2313
  246WAT     H1  949   2.882   0.891   3.951  2.4223  0.3094 -2.0414
  246WAT     H2  950   2.963   0.982   4.040  0.8077  0.7524 -0.9729
  247WAT      O  951   2.585   3.596   5.379 -0.0803  0.5057  0.1961
  247WAT     H1  952   2.645   3.653   5.427  0.1695 -0.5079  1.0941
  247WAT     H2  953   2.560   3.528   5.441 -1.9519  0.7335 -0.2453
  248WAT      O  954   4.845   5.459   2.588  0.0087  0.3380  0.2792
  248WAT     H1  955   4.767   5.508   2.614  0.2041  0.8563 -0.1122
  248WAT     H2  956   4.857   5.395   2.658 -1.2993 -0.3529 -0.0810
  249WAT      O  957   4.677   1.762   3.222  0.7039  0.2756  0.1371
  249WAT     H1  958   4.694   1.742   3.130  0.3195 -1.0039  0.3291
  249WAT     H2  959   4.585   1.788   3.224  0.8221  0.7091  0.1069
  250WAT      O  960   1.370   3.001   2.500  0.5846 -0.2480 -0.0079
  250WAT     H1  961   1.354   2.968   2.589  0.8607  0.1407  0.1888
  250WAT     H2  962   1.463   3.023   2.499  0.7287 -0.8576 -0.6003
  251WAT      O  963   0.402   3.969   2.220  0.1506  0.7439  0.8264
  251WAT     H1  964   0.444   4.002   2.141 -1.3420  1.6763  0.3694
  251WAT     H2  965   0.318   4.015   2.223 -1.1942 -1.5814  1.2724
  252WAT      O  966   0.792   3.995   1.940 -0.6092 -0.4369 -0.0972
  252WAT     H1  967   0.883   3.994   1.909 -0.6890 -0.1012 -0.3436
  252WAT     H2  968   0.741   3.960   1.867 -0.6575 -0.8140  0.1143
  253WAT      O  969   1.710   4.163   3.759  0.2108  0.0112  0.6351
  253WAT     H1  970   1.679   4.209   3.681  1.2295  1.3788  1.0160
  253WAT     H2  971   1.776   4.102   3.726 -0.3952 -0.4573  0.2633
  254WAT      O  972   0.031   1.807   1.910 -0.2202  0.4323 -0.1872
  254WAT     H1  973  -0.029   1.843   1.976  0.8844  0.7897  0.6500
  254WAT     H2  974   0.022   1.712   1.919 -1.5979  0.4680 -0.9583
  255WAT      O  975   3.959   5.209   2.914  0.4046 -0.1941 -0.2416
  255WAT     H1  976   4.003   5.169   2.839  1.2773  2.0275 -1.0191
  255WAT     H2  977   4.031   5.238   2.970 -0.1404  0.8764 -0.0753
  256WAT      O  978   4.724   5.032   1.655 -0.0138  0.2718 -0.6632
  256WAT     H1  979   4.773   5.114   1.642  0.2670  0.4360  1.2381
  256WAT     H2  980   4.700   5.005   1.566  1.9257  1.1708 -1.5339
  257WAT      O  981   0.576   3.102   3.752 -0.8401  0.2382 -0.1595
  257WAT     H1  982   0.532   3.024   3.786 -1.5464  0.9592  0.5998
  257WAT     H2  983   0.518   3.175   3.772 -0.9564  0.8159 -2.2826
  258WAT      O  984   0.752   3.906   2.872 -0.2689 -0.2368  0.1324
  258WAT     H1  985   0.810   3.965   2.920  0.1674 -1.4572  1.1583
  258WAT     H2  986   0.664   3.939   2.890 -0.0029  0.4013  0.2755
  259WAT      O  987   0.278   4.078   4.487 -0.1501  0.0645  0.0882
  259WAT     H1  988   0.373   4.067   4.494 -0.2490 -2.2720 -1.2078
  259WAT     H2  989   0.253   4.119   4.570  1.7864 -0.7304  1.1446
  260WAT      O  990   1.464   4.540   2.595  0.6921  0.5520 -0.5225
  260WAT     H1  991   1.500   4.603   2.533  0.7888 -0.7752 -1.8666
  260WAT     H2  992   1.529   4.536   2.666  1.6505  0.5396 -1.3719
  261WAT      O  993   4.846   2.752   2.116 -0.3814  0.1355 -0.5124
  261WAT     H1  994   4.797   2.729   2.037 -0.4297 -2.3135  0.1366
  261WAT     H2  995   4.906   2.821   2.088 -0.6502 -0.4118 -2.6081
  262WAT      O  996   4.286   3.931   1.053 -0.0634  0.4531 -0.8951
  262WAT     H1  997   4.335   3.950   1.133 -0.6675 -0.6452 -0.2525
  262WAT     H2  998   4.207   3.887   1.083  1.2815 -3.2213 -2.2719
  263WAT      O  999   4.903   3.478   2.595 -0.6181  0.2274 -0.1516
  263WAT     H1 1000   4.830   3.445   2.648 -1.3108  1.6605 -0.1690
  263WAT     H2 1001   4.863   3.502   2.512 -0.3484  2.0683  0.2239
  264WAT      O 1002   1.373   4.530   4.842 -0.7588  0.3869  0.2174
  264WAT     H1 1003   1.386   4.489   4.756 -1.6091  0.5003  0.0212
  264WAT     H2 1004   1.360   4.623   4.822  0.6862  0.6977  0.6196
  265WAT      O 1005   3.630   0.771   3.023 -0.7279  0.7633  0.1156
  265WAT     H1 1006   3.644   0.863   2.999  1.7045  0.6760  0.8793
  265WAT     H2 1007   3.692   0.723   2.969 -1.2153 -0.3107  0.4957
  266WAT      O 1008   4.498   3.593   0.242  0.1970 -0.4243 -0.1958
  266WAT     H1 1009   4.451   3.513   0.266 -0.3137  0.0738  0.5093
  266WAT     H2 1010   4.569   3.600   0.306  1.4475 -1.3171 -1.4197
  267WAT      O 1011   0.495   2.138   4.571  0.8103 -0.0122  0.1874
  267WAT     H1 1012   0.410   2.099   4.590  1.0959 -0.9957 -0.4953
  267WAT     H2 1013   0.526   2.091   4.494  0.5697  2.4986 -1.5420
  268WAT      O 1014   0.102   2.431   4.197 -0.7893 -0.2103 -0.1782
  268WAT     H1 1015   0.076   2.400   4.284 -0.3994 -0.5431 -0.1779
  268WAT     H2 1016   0.026   2.479   4.166 -0.5891  0.7471  0.7516
  269WAT      O 1017   1.124   3.638   0.674 -0.3126  0.0066 -0.2503
  269WAT     H1 1018   1.096   3.566   0.730  1.7941 -0.3865  0.3993
  269WAT     H2 1019   1.212   3.613   0.645 -1.2439  0.1710 -3.7888
  270WAT      O 1020   0.098   5.036   2.619 -0.3041 -0.1852  0.0214
  270WAT     H1 1021   0.043   5.069   2.548 -0.4686 -0.9969 -0.2393
  270WAT     H2 1022   0.150   5.111   2.646 -0.5576  0.2432 -0.6638
  271WAT      O 1023   1.261   2.790   5.039 -0.3729 -0.4019  0.0118
  271WAT     H1 1024   1.226   2.752   5.120 -0.8546 -0.4625 -0.2222
  271WAT     H2 1025   1.184   2.824   4.993  0.0291  0.6589  0.1065
  272WAT      O 1026   0.008   4.707   1.713 -0.4381  0.6587 -0.1322
  272WAT     H1 1027  -0.016   4.748   1.630  1.3484 -0.3425 -1.1954
  272WAT     H2 1028   0.103   4.716   1.718 -0.6494  2.7550  2.9647
  273WAT      O 1029   3.740   0.954   1.351 -0.2827 -0.0040 -0.1108
  273WAT     H1 1030   3.724   0.907   1.269  2.1077  0.8681 -1.1499
  273WAT     H2 1031   3.805   0.900   1.397  1.9964  1.8346 -1.0181
  274WAT      O 1032   4.322   4.112   3.039  0.6661  0.4402 -0.1461
  274WAT     H1 1033   4.413   4.082   3.044  1.0636  1.2039 -2.0456
  274WAT     H2 1034   4.296   4.094   2.949 -0.4081  2.0818 -0.1969
  275WAT      O 1035   4.245   4.967   2.107 -0.4552  0.3827  0.0391
  275WAT     H1 1036   4.324   5.021   2.101 -1.0618  1.4033  0.9502
  275WAT     H2 1037   4.182   5.009   2.048  0.0336 -1.1528 -1.6901
  276WAT      O 1038   2.337   3.377   4.946 -0.2945  0.6171  0.0507
  276WAT     H1 1039   2.265   3.315   4.960  0.7863 -1.1331 -1.5798
  276WAT     H2 1040   2.362   3.363   4.855  1.9400  1.3517  0.5031
  277WAT      O 1041   3.753   2.054   5.583 -0.5429 -0.6622 -0.4901
  277WAT     H1 1042   3.698   1.998   5.637  1.0574 -0.9843  0.8798
  277WAT     H2 1043   3.842   2.042   5.617  0.3319  0.2051 -2.2987
  278WAT      O 1044   3.776   4.009   1.668  0.8019  0.1981  0.1885
  278WAT     H1 1045   3.846   3.993   1.605 -0.6184 -2.1058 -0.9686
  278WAT     H2 1046   3.778   3.932   1.726 -0.0290  0.6521  0.8537
  279WAT      O 1047   0.703   4.926   2.066 -0.3855 -0.2042 -0.5709
  279WAT     H1 1048   0.623   4.970   2.095 -0.7473 -1.1143 -0.1607
  279WAT     H2 1049   0.672   4.845   2.025  0.2828 -0.1548 -1.2016
  280WAT      O 1050   4.988   0.437   3.611 -0.5203 -0.1692 -0.1502
  280WAT     H1 1051   4.954   0.524   3.593  1.1716  0.9052  1.3927
  280WAT     H2 1052   4.959   0.418   3.700  1.4202  0.1132  0.6068
  281WAT      O 1053   4.059   3.202   1.305 -1.2609 -0.0552  0.3402
  281WAT     H1 1054   4.135   3.210   1.248 -1.4082  0.1488  0.1693
  281WAT     H2 1055   4.092   3.158   1.384 -0.5357  1.6692  1.0619
  282WAT      O 1056   3.024   3.843   2.727 -0.2138 -0.0104 -0.6593
  282WAT     H1 1057   3.108   3.824   2.768 -0.0668  0.7130 -0.6186
  282WAT     H2 1058   2.983   3.907   2.785 -1.0363 -0.7790 -0.3799
  283WAT      O 1059   4.845   3.695   5.252 -0.7320  0.3287 -0.5472
  283WAT     H1 1060   4.793   3.731   5.324 -1.5109 -2.0011  0.1314
  283WAT     H2 1061   4.928   3.669   5.293  1.2013  4.0215 -1.6195
  284WAT      O 1062   3.302   1.474   4.284  0.0282  0.1094 -0.2069
  284WAT     H1 1063   3.220   1.431   4.310 -0.4416  0.7678 -0.5696
  284WAT     H2 1064   3.333   1.423   4.210 -0.1543 -0.0336 -0.1862
  285WAT      O 1065   2.313   1.797   5.579  0.5360 -0.0237 -0.1219
  285WAT     H1 1066   2.342   1.887   5.563 -0.3647  0.4747  0.9010
  285WAT     H2 1067   2.376   1.743   5.532  1.8329  1.0962  0.2542
  286WAT      O 1068   1.572   2.524   0.599  0.3806 -0.5956  0.1803
  286WAT     H1 1069   1.532   2.439   0.587  0.6068 -0.7007  0.1570
  286WAT     H2 1070   1.662   2.513   0.568  0.5229 -0.4558  0.5258
  287WAT      O 1071   3.753   2.587   1.083 -0.1138 -0.2260  0.2354
  287WAT     H1 1072   3.701   2.658   1.045 -1.7141 -0.7844  1.3104
  287WAT     H2 1073   3.749   2.517   1.018 -0.2711 -0.0882  0.0956
  288WAT      O 1074   3.443   5.257   1.551  0.1684  0.0969  0.1752
  288WAT     H1 1075   3.514   5.321   1.544 -2.2132  2.7458 -1.9876
  288WAT     H2 1076   3.410   5.247   1.462 -2.1915 -1.0285  1.0822
  289WAT      O 1077   3.315   1.178   1.753  0.1831 -0.5265  0.1743
  289WAT     H1 1078   3.338   1.088   1.775 -0.5525 -0.3355  1.9402
  289WAT     H2 1079   3.385   1.207   1.695  1.2005 -1.7881  0.7085
  290WAT      O 1080   1.863   4.078   0.288  0.0889 -0.8165 -0.8865
  290WAT     H1 1081   1.843   4.154   0.234  0.3232  0.5557  0.8526
  290WAT     H2 1082   1.944   4.102   0.334 -0.0731 -1.9303  0.0172
  291WAT      O 1083   4.768   2.437   0.967 -0.3570  0.2332  0.2183
  291WAT     H1 1084   4.776   2.516   1.021  1.3113  2.1425 -2.5803
  291WAT     H2 1085   4.841   2.443   0.905 -2.7156 -1.2161 -2.9460
  292WAT      O 1086   3.013   3.946   0.940  0.0327  0.7902  0.1036
  292WAT     H1 1087   2.966   4.008   0.996 -1.8579  0.2356 -0.7705
  292WAT     H2 1088   3.047   3.881   1.001  0.0657  1.4596  0.8199
  293WAT      O 1089   3.662   4.636   4.438  0.0233 -0.6645  0.2924
  293WAT     H1 1090   3.616   4.589   4.508 -0.8023 -0.6559 -0.2375
  293WAT     H2 1091   3.593   4.664   4.378  0.8311 -1.7360 -1.1830
  294WAT      O 1092   3.459   1.239   3.367  0.2401  0.1912  0.1024
  294WAT     H1 1093   3.511   1.263   3.444  0.6157 -1.3223  0.3611
  294WAT     H2 1094   3.523   1.222   3.299 -0.0701  0.9878 -0.4046
  295WAT      O 1095   3.267   4.638   1.796 -0.0410  0.1493  0.3548
  295WAT     H1 1096   3.338   4.654   1.734 -2.7101  1.1123 -2.7061
  295WAT     H2 1097   3.249   4.544   1.787 -0.9301  0.4275 -1.0099
  296WAT      O 1098   4.027   0.005   1.911 -0.0494  0.1215 -0.0978
  296WAT     H1 1099   4.047  -0.055   1.839 -2.6446 -0.5141 -0.3716
  296WAT     H2 1100   4.025   0.091   1.870  2.8814  0.4307  0.1483
  297WAT      O 1101   0.235   4.012   3.056  0.2848  0.7513  0.3937
  297WAT     H1 1102   0.253   4.046   3.144 -2.4024  0.4158  1.1388
  297WAT     H2 1103   0.311   3.957   3.036  1.8645  2.3390  1.6626
  298WAT      O 1104   2.264   2.163   2.225 -0.5271  0.6388 -0.3221
  298WAT     H1 1105   2.337   2.133   2.279  0.3791  0.8513 -1.3807
  298WAT     H2 1106   2.218   2.082   2.200  0.8367  0.2301 -1.6786
  299WAT      O 1107   3.195   1.828   1.415  0.5109  0.0563 -0.5087
  299WAT     H1 1108   3.151   1.912   1.428  0.4343  0.1860 -1.4666
  299WAT     H2 1109   3.149   1.767   1.473  0.5054  0.6556  0.1218
  300WAT      O 1110   3.731   2.418   1.672  0.3615  0.3960 -0.0528
  300WAT     H1 1111   3.769   2.330   1.665  3.2451  1.6230 -1.2369
  300WAT     H2 1112   3.786   2.472   1.616 -1.2391  3.0192  0.7563
  301WAT      O 1113   0.535   3.866   2.660 -0.7420 -0.3401 -0.3698
  301WAT     H1 1114   0.486   3.841   2.581 -1.4536  1.3281 -0.4974
  301WAT     H2 1115   0.474   3.918   2.711 -0.9697 -2.9899  2.3361
  302WAT      O 1116   0.123   2.550   0.503 -0.4339  0.4593 -0.5616
  302WAT     H1 1117   0.174   2.525   0.581 -0.3754 -1.2895 -1.1139
  302WAT     H2 1118   0.122   2.646   0.505  2.3989  0.5754 -0.2016
  303WAT      O 1119   3.336   2.602   2.857 -0.0877  0.1762 -0.6772
  303WAT     H1 1120   3.430   2.608   2.873 -0.2690 -0.5141  0.8672
  303WAT     H2 1121   3.327   2.536   2.788  0.4897 -1.1525  0.4768
  304WAT      O 1122   4.176   3.381   3.660  0.6623  0.2719 -0.0459
  304WAT     H1 1123   4.225   3.454   3.698 -0.3870  0.6082  0.7076
  304WAT     H2 1124   4.135   3.338   3.735 -1.3845  0.8830 -0.7374
  305WAT      O 1125   2.370   3.642   4.429  0.1483 -0.0180  0.2779
  305WAT     H1 1126   2.435   3.574   4.443 -1.5758 -1.9721 -0.6378
  305WAT     H2 1127   2.288   3.605   4.462 -0.8116  1.7196  0.0129
  306WAT      O 1128   3.216   4.732   2.584 -0.0471 -0.0046  0.2820
  306WAT     H1 1129   3.272   4.769   2.516  0.1322 -0.4996  0.1535
  306WAT     H2 1130   3.138   4.788   2.584 -0.3826 -0.4460 -0.8580
  307WAT      O 1131   4.532   4.109   0.726 -0.0302 -0.0602 -0.3180
  307WAT     H1 1132   4.611   4.134   0.773  0.1654  1.6630 -1.5068
  307WAT     H2 1133   4.513   4.020   0.758  3.4532 -1.3428 -1.3896
  308WAT      O 1134   2.632   4.504   3.638 -0.0812 -0.0751 -0.0553
  308WAT     H1 1135   2.573   4.451   3.692  1.6080 -1.3553  0.6536
  308WAT     H2 1136   2.640   4.587   3.685  0.1424 -0.5923  0.8379
  309WAT      O 1137   3.439   0.758   2.339 -0.5112 -0.1999 -0.1496
  309WAT     H1 1138   3.382   0.785   2.411 -0.6557  0.8004 -0.6127
  309WAT     H2 1139   3.383   0.706   2.282 -0.6277 -0.2812  0.0405
  310WAT      O 1140   3.230   4.963   3.041 -0.2047 -0.1695 -0.3826
  310WAT     H1 1141   3.202   4.879   3.078  0.6072 -0.2029  0.1857
  310WAT     H2 1142   3.215   4.954   2.947 -1.2733 -0.4976 -0.1954
  311WAT      O 1143   4.734   4.465   4.349 -0.1719 -0.0533 -0.1037
  311WAT     H1 1144   4.766   4.401   4.285 -0.3090 -0.5731  0.3428
  311WAT     H2 1145   4.738   4.419   4.433 -3.0039 -0.5039 -0.1126
  312WAT      O 1146   4.118   4.130   0.897 -0.0619 -0.0855 -0.2915
  312WAT     H1 1147   4.183   4.153   0.831  3.0758  1.5959  3.0624
  312WAT     H2 1148   4.156   4.056   0.944 -0.9257  0.4152  1.2666
  313WAT      O 1149   4.077   3.805   1.185 -0.1699  0.2779 -0.0133
  313WAT     H1 1150   4.000   3.830   1.134 -1.3104 -1.1973  0.8624
  313WAT     H2 1151   4.051   3.819   1.276  1.3893  1.7320  0.2567
  314WAT      O 1152   1.495   2.284   0.478 -0.7161 -0.2100  0.5410
  314WAT     H1 1153   1.498   2.201   0.525 -1.7881 -0.8302 -0.4508
  314WAT     H2 1154   1.547   2.269   0.399 -2.3386 -0.5202 -0.4996
  315WAT      O 1155   2.915   5.172   2.379  0.0655 -0.5683 -0.0781
  315WAT     H1 1156   2.874   5.116   2.444  0.8008 -2.5284 -1.2219
  315WAT     H2 1157   2.852   5.177   2.307  0.1844 -0.3166 -0.1674
  316WAT      O 1158   4.653   2.450   3.129 -0.0416  0.3190  0.6198
  316WAT     H1 1159   4.558   2.455   3.140  0.0313  1.4769  0.8082
  316WAT     H2 1160   4.673   2.357   3.138 -1.1266  0.0927  0.8375
  317WAT      O 1161   4.632   4.197   1.188 -0.3618 -0.0630  0.1593
  317WAT     H1 1162   4.689   4.251   1.243  0.4273  0.0593 -0.7646
  317WAT     H2 1163   4.630   4.112   1.232  0.3816 -0.0113  0.2981
  318WAT      O 1164   4.720   3.787   1.748  0.0089 -0.6310 -0.0895
  318WAT     H1 1165   4.734   3.745   1.833 -0.1817 -2.0313 -0.7120
  318WAT     H2 1166   4.642   3.840   1.759  1.1744  0.9218  1.1900
  319WAT      O 1167   2.965   4.365   1.506  0.0171 -0.0278  0.3742
  319WAT     H1 1168   2.903   4.411   1.563  1.4256  1.8008  0.5049
  319WAT     H2 1169   2.944   4.395   1.418 -2.2616 -2.9749 -0.2304
  320WAT      O 1170   0.465   3.009   0.631 -0.0009  0.0693  0.0818
  320WAT     H1 1171   0.460   3.098   0.596 -0.2351 -0.1539 -0.4477
  320WAT     H2 1172   0.416   2.956   0.570 -1.4550 -0.1458  1.3678
  321WAT      O 1173   4.893   4.887   2.286  0.0841 -0.5672 -0.1473
  321WAT     H1 1174   4.911   4.820   2.352  2.5140  1.4190  1.3877
  321WAT     H2 1175   4.977   4.899   2.241 -0.6792  0.4675 -1.3479
  322WAT      O 1176   0.253   2.884   0.829  0.7764  0.1618 -0.5043
  322WAT     H1 1177   0.333   2.918   0.788  0.4445  1.0773 -0.4257
  322WAT     H2 1178   0.186   2.950   0.808  0.1241 -0.4120 -0.2631
  323WAT      O 1179   1.663   2.288   0.941 -0.1265  0.4529 -0.1701
  323WAT     H1 1180   1.716   2.366   0.955  0.6275 -0.3843  1.8981
  323WAT     H2 1181   1.661   2.243   1.026 -2.2412 -0.7410 -0.7563
  324WAT      O 1182   2.381   5.271   3.245  0.6398  0.4026  0.0313
  324WAT     H1 1183   2.431   5.346   3.211  0.6277  0.4795  0.1829
  324WAT     H2 1184   2.379   5.209   3.172  2.7471 -0.5000  0.6731
  325WAT      O 1185   0.298   4.734   1.673 -0.6899 -0.1764  0.2440
  325WAT     H1 1186   0.292   4.813   1.726  1.0528 -0.2137  0.5519
  325WAT     H2 1187   0.390   4.708   1.678 -0.5202 -0.4142 -2.4481
  326WAT      O 1188   2.341   4.155   1.405  0.0519  0.4394 -0.0002
  326WAT     H1 1189   2.266   4.116   1.451 -0.9843 -0.0971 -2.0008
  326WAT     H2 1190   2.301   4.217   1.344  1.2347  0.2372 -1.0212
  327WAT      O 1191   0.676   3.479   1.433 -0.4606  0.0958  0.0125
  327WAT     H1 1192   0.676   3.525   1.516  0.6766  0.9816 -0.4469
  327WAT     H2 1193   0.761   3.434   1.430 -0.1916  0.6321 -0.9437
  328WAT      O 1194   3.074   3.981   5.412  0.0428 -0.5275  0.4945
  328WAT     H1 1195   3.054   4.068   5.377  0.7344  0.8370  3.2253
  328WAT     H2 1196   3.005   3.925   5.376 -2.4998  1.8636  1.2386
  329WAT      O 1197   3.911   3.023   5.181 -0.0050 -0.1463  0.2893
  329WAT     H1 1198   3.905   2.929   5.199 -0.6592 -0.7622 -2.6532
  329WAT     H2 1199   3.908   3.064   5.268 -0.4912 -2.7869  1.6205
  330WAT      O 1200   4.611   4.762   2.828 -0.4439  0.3316  0.4713
  330WAT     H1 1201   4.581   4.690   2.774 -1.4866 -0.3932  1.9332
  330WAT     H2 1202   4.539   4.777   2.890  1.2923  0.0206  2.7002
  331WAT      O 1203   1.208   2.313   5.771  0.3191  0.7319  0.0795
  331WAT     H1 1204   1.253   2.348   5.847 -1.4162  1.7602  0.6829
  331WAT     H2 1205   1.123   2.282   5.804 -1.3072  2.9868 -1.6705
  332WAT      O 1206   2.717   3.589   0.609 -0.3498 -0.1659 -0.1178
  332WAT     H1 1207   2.685   3.678   0.626 -0.9724 -0.4324  0.1269
  332WAT     H2 1208   2.744   3.557   0.695  1.3157  0.3257 -0.4259
  333WAT      O 1209   4.325   0.332   2.274 -0.6763 -0.3305  0.3693
  333WAT     H1 1210   4.336   0.326   2.179 -1.9812  0.4097  0.1466
  333WAT     H2 1211   4.413   0.347   2.307 -0.2592 -0.1475 -0.7612
  334WAT      O 1212   4.348   0.828   1.694  0.5871 -0.0055 -0.2777
  334WAT     H1 1213   4.436   0.794   1.707  0.7742  1.2720  2.4645
  334WAT     H2 1214   4.317   0.851   1.782 -0.7910  3.6769 -1.5087
  335WAT      O 1215   2.673   2.907   5.146  0.2875 -0.5641 -0.2395
  335WAT     H1 1216   2.675   2.899   5.242 -0.5329 -1.5702 -0.2796
  335WAT     H2 1217   2.698   2.820   5.115  0.5015 -0.2577 -0.9426
  336WAT      O 1218   4.921   3.049   2.128 -0.0394 -0.1942  0.2508
  336WAT     H1 1219   4.958   3.095   2.052  0.7132 -0.1612  0.6208
  336WAT     H2 1220   4.841   3.096   2.148  0.9025  1.1962  0.8418
  337WAT      O 1221   3.904   3.415   0.980  0.5528 -0.3156 -0.3603
  337WAT     H1 1222   3.941   3.346   0.924  0.3505 -0.3956 -0.3951
  337WAT     H2 1223   3.978   3.446   1.031  0.2832 -1.9778  1.1763
  338WAT      O 1224   2.363   0.368   2.657 -0.3005 -0.2150  0.2526
  338WAT     H1 1225   2.337   0.372   2.749  0.6256 -0.0772  0.5145
  338WAT     H2 1226   2.438   0.309   2.656  1.6673  2.1307  0.0672
  339WAT      O 1227   0.998   2.469   0.368  0.2026 -0.2147 -0.3251
  339WAT     H1 1228   1.093   2.456   0.358  0.3994  0.9936 -0.2089
  339WAT     H2 1229   0.970   2.397   0.423  1.0383 -0.6672 -0.4660
  340WAT      O 1230   2.769   2.632   0.908 -0.0138  0.0344  0.4142
  340WAT     H1 1231   2.700   2.597   0.964  0.5855 -0.1465  1.0445
  340WAT     H2 1232   2.786   2.720   0.943 -0.2046  0.2332  0.0094
  341WAT      O 1233   2.920   4.495   2.885  0.2873  0.2465  0.2717
  341WAT     H1 1234   3.015   4.485   2.878  0.5316 -0.6248  3.4033
  341WAT     H2 1235   2.894   4.427   2.947 -2.3926  0.5552 -0.4295
  342WAT      O 1236   4.520   3.440   5.419  0.0248  0.2960 -0.1912
  342WAT     H1 1237   4.543   3.416   5.329 -0.5106  0.2184 -0.3097
  342WAT     H2 1238   4.442   3.494   5.410 -1.9564 -2.2577  0.3762
  343WAT      O 1239   0.460   1.496   3.435 -0.2230  0.8938  0.0644
  343WAT     H1 1240   0.492   1.426   3.378  0.4014  0.2235  1.2124
  343WAT     H2 1241   0.473   1.576   3.384  1.4639  0.4279 -0.2732
  344WAT      O 1242   0.689   1.264   4.149  0.1446 -0.0218  0.6647
  344WAT     H1 1243   0.655   1.353   4.164 -1.7247 -0.6843  0.6518
  344WAT     H2 1244   0.715   1.234   4.236 -0.3048  0.1218  0.8508
  345WAT      O 1245   3.802   3.667   2.423  1.0568  0.4795  0.3882
  345WAT     H1 1246   3.753   3.654   2.342  2.9915  2.0542 -1.1280
  345WAT     H2 1247   3.829   3.579   2.449 -0.6610 -0.1831  0.0708
  346WAT      O 1248   1.159   3.364   5.043 -0.8021  0.5330  0.5654
  346WAT     H1 1249   1.128   3.447   5.008 -0.1236  0.4001 -0.3953
  346WAT     H2 1250   1.239   3.386   5.091 -0.0877  0.3240 -0.4998
  347WAT      O 1251   1.048   4.893   1.325  0.2253 -0.2140 -0.6637
  347WAT     H1 1252   0.967   4.914   1.370  0.8157  1.5032 -0.2850
  347WAT     H2 1253   1.024   4.829   1.258 -1.4590  0.3876 -0.6672
  348WAT      O 1254   2.080   3.262   4.927  0.5848 -0.0790 -0.1588
  348WAT     H1 1255   2.066   3.342   4.876 -0.1364 -0.5033 -0.6267
  348WAT     H2 1256   1.994   3.241   4.964  0.2187 -1.9099 -1.9140
  349WAT      O 1257   4.325   1.483   2.333  0.2866 -0.3278 -0.2350
  349WAT     H1 1258   4.405   1.514   2.376 -0.0049 -1.4341  1.2128
  349WAT     H2 1259   4.356   1.439   2.253  0.9237  1.0275 -0.7581
  350WAT      O 1260   2.015   4.725   1.222 -0.0518 -0.0235 -0.6108
  350WAT     H1 1261   2.033   4.757   1.311 -0.3387 -0.0142 -0.5562
  350WAT     H2 1262   2.100   4.697   1.190  0.1966  0.7278 -0.6320
  351WAT      O 1263   3.969   5.558   2.279 -0.2296 -0.1605 -0.0199
  351WAT     H1 1264   3.882   5.578   2.314 -0.0198 -0.8605  0.9501
  351WAT     H2 1265   3.960   5.471   2.240  0.3799 -0.9567  1.5023
  352WAT      O 1266   1.728   3.973   0.489 -0.0868 -0.1539  0.5259
  352WAT     H1 1267   1.735   3.879   0.473  1.2451 -0.4076  2.2842
  352WAT     H2 1268   1.746   4.014   0.404  0.5353 -1.4521  0.0181
  353WAT      O 1269   0.805   4.261   1.784  0.5238 -0.3751  0.0654
  353WAT     H1 1270   0.786   4.196   1.852  3.1842 -1.8999 -0.5101
  353WAT     H2 1271   0.721   4.277   1.742 -0.9551 -0.4070  2.7780
  354WAT      O 1272  -0.026   3.811   1.958  0.2699 -0.1102  0.2190
  354WAT     H1 1273  -0.025   3.905   1.978  1.5053 -0.3354  1.3915
  354WAT     H2 1274   0.055   3.778   1.997 -0.7091 -1.8695  0.8420
  355WAT      O 1275   2.580   2.374   1.881 -0.3198 -0.2340 -0.0954
  355WAT     H1 1276   2.518   2.358   1.809 -0.5803  1.4305 -0.2857
  355WAT     H2 1277   2.540   2.333   1.957 -1.3831  0.3038 -0.3469
  356WAT      O 1278   2.652   0.664   3.922 -0.0165 -0.0004  0.1329
  356WAT     H1 1279   2.633   0.590   3.978 -0.3685  0.4181  0.5724
  356WAT     H2 1280   2.748   0.667   3.918  0.0003 -0.4005  0.2070
  357WAT      O 1281   2.699   4.340   1.681 -0.1073 -0.3246 -0.1744
  357WAT     H1 1282   2.674   4.288   1.757 -0.7943  0.3091  0.0460
  357WAT     H2 1283   2.729   4.276   1.617  0.4111 -0.8703  0.5958
  358WAT      O 1284   4.290   1.427   1.887 -0.0857  0.9890 -0.0684
  358WAT     H1 1285   4.202   1.462   1.902 -1.0426 -1.5090  0.8920
  358WAT     H2 1286   4.313   1.386   1.971  1.8261  1.2318 -0.4445
  359WAT      O 1287   4.896   2.840   1.555 -0.0953  0.1928  0.4175
  359WAT     H1 1288   4.959   2.792   1.501  0.2103  0.0729  0.8660
  359WAT     H2 1289   4.950   2.882   1.622 -0.4086  0.8384  0.2636
  360WAT      O 1290   3.038   4.744   3.171 -0.0798  0.3414  1.1309
  360WAT     H1 1291   3.050   4.649   3.166 -2.7758 -0.0821  1.1587
  360WAT     H2 1292   3.019   4.760   3.263  0.6883  0.9900  1.1856
  361WAT      O 1293   1.572   3.348   0.067  0.1698  0.4338 -0.0958
  361WAT     H1 1294   1.636   3.316   0.003 -0.1565 -0.3156 -0.0667
  361WAT     H2 1295   1.492   3.297   0.048 -0.2218  0.8970  0.2810
  362WAT      O 1296   4.431   3.522   0.598  0.0125 -0.2158  0.4823
  362WAT     H1 1297   4.502   3.511   0.661  0.0055 -1.0910  0.3496
  362WAT     H2 1298   4.465   3.484   0.517 -0.2898  0.1420  0.1831
  363WAT      O 1299   1.775   5.418   1.913 -0.3656 -0.6233 -0.3450
  363WAT     H1 1300   1.810   5.459   1.992 -1.9506 -1.1561  0.6742
  363WAT     H2 1301   1.691   5.381   1.940 -0.7595 -1.1809 -2.1853
  364WAT      O 1302   3.066   4.250   2.786  0.0814  0.6081  0.3146
  364WAT     H1 1303   3.103   4.320   2.839  2.0091 -0.3847  0.3778
  364WAT     H2 1304   3.103   4.263   2.699  0.5049 -0.3438  0.3415
  365WAT      O 1305   2.095   1.174   1.335 -0.5148 -0.4660  0.3134
  365WAT     H1 1306   2.067   1.253   1.289 -2.4959 -0.5469  1.2674
  365WAT     H2 1307   2.013   1.127   1.354  0.4882 -1.9818  1.1371
  366WAT      O 1308   0.424   5.392   1.464 -0.3852  0.6435 -0.2487
  366WAT     H1 1309   0.343   5.405   1.414  0.3194 -0.0868 -1.6639
  366WAT     H2 1310   0.484   5.458   1.428  0.3410 -0.3328 -0.8908
  367WAT      O 1311   4.365   1.873   0.453 -0.1165  0.1204 -0.8492
  367WAT     H1 1312   4.440   1.856   0.510  0.5955  1.1446 -1.4408
  367WAT     H2 1313   4.397   1.937   0.389 -1.6218  0.9436 -0.8366
  368WAT      O 1314   1.202   5.137   1.259 -0.3595  0.0166 -0.4828
  368WAT     H1 1315   1.133   5.072   1.276  0.9495 -1.6426 -1.2540
  368WAT     H2 1316   1.256   5.135   1.338 -0.3562  0.2433 -0.4788
  369WAT      O 1317   3.292   3.267   0.650 -0.0643  0.9118  0.1282
  369WAT     H1 1318   3.244   3.230   0.576  1.0446  0.0491 -0.2129
  369WAT     H2 1319   3.319   3.354   0.621  0.5248  0.5081 -0.5916
  370WAT      O 1320   3.622   2.900   0.680 -0.0692  0.2317 -0.0329
  370WAT     H1 1321   3.661   2.890   0.593 -0.3815  0.1444 -0.1645
  370WAT     H2 1322   3.528   2.895   0.665 -0.1743  1.3753  0.1653
  371WAT      O 1323   4.816   3.903   2.349  0.5667 -0.4044 -0.1804
  371WAT     H1 1324   4.734   3.862   2.376 -0.4305  1.8334  0.4024
  371WAT     H2 1325   4.798   3.936   2.261  0.5587  0.7628  0.2451
  372WAT      O 1326   4.613   3.468   0.802  0.5389 -0.2851  0.4445
  372WAT     H1 1327   4.633   3.519   0.880  2.3440  0.3513 -0.3930
  372WAT     H2 1328   4.694   3.469   0.751 -0.5618 -0.7662 -1.3958
  373WAT      O 1329   3.508   3.935   1.994 -0.0699  0.4943  0.0801
  373WAT     H1 1330   3.472   3.860   2.042 -0.3970  1.0863  0.7774
  373WAT     H2 1331   3.557   3.984   2.060  1.2237  0.2287 -0.6469
  374WAT      O 1332   3.719   0.632   1.698 -0.1338  0.3177  0.2395
  374WAT     H1 1333   3.771   0.578   1.638 -0.2553 -0.9416  1.2295
  374WAT     H2 1334   3.776   0.648   1.773  0.1292  2.1513 -0.3013
  375WAT      O 1335   3.966   2.705   5.278  0.1544  0.1430 -0.0763
  375WAT     H1 1336   3.934   2.638   5.219 -0.0339 -0.0445  0.2366
  375WAT     H2 1337   4.061   2.708   5.263  0.2827 -0.7834  0.5099
  376WAT      O 1338   4.230   4.319   2.671 -0.4042  0.1958  0.2991
  376WAT     H1 1339   4.295   4.336   2.739 -0.8120 -0.2484  0.8089
  376WAT     H2 1340   4.271   4.348   2.590  0.3367  0.1394  0.6507
  377WAT      O 1341   2.457   3.972   1.252 -0.4899 -0.1348  0.1252
  377WAT     H1 1342   2.418   4.044   1.300  0.4781 -0.2591  1.1258
  377WAT     H2 1343   2.387   3.908   1.242 -1.0360  0.4418  0.2344
  378WAT      O 1344   0.799   4.106   5.804 -0.2920 -0.7541  0.2425
  378WAT     H1 1345   0.868   4.119   5.869 -0.8920 -0.0113  0.7474
  378WAT     H2 1346   0.830   4.152   5.726 -0.7143  0.5468  0.8272
  379WAT      O 1347   2.408   3.220   0.432  0.6338  0.4562  0.0517
  379WAT     H1 1348   2.327   3.176   0.459  0.6212 -1.0474 -2.1800
  379WAT     H2 1349   2.386   3.313   0.433 -1.1477  0.0875 -0.4899
  380WAT      O 1350   1.441   4.719   3.852 -0.1790 -0.0752 -0.2354
  380WAT     H1 1351   1.364   4.733   3.797  0.3522  0.5768 -0.8296
  380WAT     H2 1352   1.406   4.685   3.935 -1.1661  0.9090 -0.2351
  381WAT      O 1353   2.059   3.857   1.874 -0.5704  0.5149  0.0862
  381WAT     H1 1354   1.979   3.811   1.848  0.0958 -0.2192 -0.7536
  381WAT     H2 1355   2.129   3.795   1.853  0.3167  1.6868 -0.4996
  382WAT      O 1356   3.741   5.607   2.387 -0.2207 -0.2431 -0.6351
  382WAT     H1 1357   3.671   5.572   2.333 -1.5019 -0.7802  1.2673
  382WAT     H2 1358   3.718   5.580   2.476  1.8740  0.4475  0.1766
  383WAT      O 1359   3.174   4.419   2.932 -0.0205  0.5864 -0.1010
  383WAT     H1 1360   3.244   4.469   2.889  1.0375 -1.1480 -0.4740
  383WAT     H2 1361   3.194   4.427   3.025 -0.6599  1.9621 -0.0548
  384WAT      O 1362   3.927   0.133   2.602  0.3956  0.4720 -0.6451
  384WAT     H1 1363   3.859   0.112   2.665 -0.1003 -0.5724 -1.4923
  384WAT     H2 1364   3.879   0.162   2.524  0.9388  0.1942 -1.0896
  385WAT      O 1365   2.718   3.049   0.064 -0.0315  0.3244  0.5178
  385WAT     H1 1366   2.714   3.100   0.144 -2.9445  0.1236  0.5997
  385WAT     H2 1367   2.801   3.002   0.069  0.7772  1.8399  2.4147
  386WAT      O 1368   3.634   0.919   2.658 -0.5213  0.2821  0.1820
  386WAT     H1 1369   3.689   0.843   2.678  1.0190  0.8920 -1.4108
  386WAT     H2 1370   3.565   0.885   2.602 -1.0318 -0.2705  1.1237
  387WAT      O 1371   3.873   0.148   3.758  0.0349  1.1097 -0.3244
  387WAT     H1 1372   3.783   0.126   3.779 -0.2279  0.9439 -1.5160
  387WAT     H2 1373   3.892   0.227   3.809 -1.0650  1.6183 -0.6790
  388WAT      O 1374   1.187   3.021   3.560 -0.6117  0.0316 -0.2968
  388WAT     H1 1375   1.247   3.072   3.506 -0.5339 -0.6857 -0.9095
  388WAT     H2 1376   1.110   3.077   3.569 -0.3334  0.4615 -0.5261
  389WAT      O 1377   1.065   4.196   1.723  0.0494  0.2685 -0.1362
  389WAT     H1 1378   1.000   4.252   1.766 -0.3652 -0.4538  0.1956
  389WAT     H2 1379   1.098   4.140   1.793  0.1958 -0.1472 -0.5310
  390WAT      O 1380   2.264   5.295   4.095  0.5357 -0.3751 -0.2113
  390WAT     H1 1381   2.208   5.372   4.088  0.1648 -0.7722 -2.5460
  390WAT     H2 1382   2.335   5.321   4.154  0.2108  1.6241 -0.6583
  391WAT      O 1383   1.215   4.670   0.694 -0.0406 -0.2949  0.4752
  391WAT     H1 1384   1.283   4.609   0.721  1.1113  1.0149  0.6966
  391WAT     H2 1385   1.261   4.754   0.685 -1.3240  0.3067 -0.9187
  392WAT      O 1386   1.013   3.074   0.502 -0.1199  0.2246 -0.3345
  392WAT     H1 1387   1.045   2.985   0.486 -1.9695 -0.4669 -0.3896
  392WAT     H2 1388   0.998   3.110   0.415 -1.8730 -0.4072 -0.3471
  393WAT      O 1389   4.227   5.333   2.989  0.4558  0.2169  0.3620
  393WAT     H1 1390   4.235   5.414   3.039 -0.8205  1.0397 -0.6884
  393WAT     H2 1391   4.235   5.360   2.898 -2.2881 -0.3918 -0.1712
  394WAT      O 1392   0.192   1.495   5.142 -0.0793  0.0495 -0.1748
  394WAT     H1 1393   0.208   1.462   5.230  1.9705  1.2449 -0.0528
  394WAT     H2 1394   0.270   1.471   5.092 -1.2773 -0.7621 -1.7503
  395WAT      O 1395   4.334   3.953   1.811  0.1516 -0.1065  0.1649
  395WAT     H1 1396   4.301   3.891   1.746  0.0889 -0.2580  0.3445
  395WAT     H2 1397   4.266   3.958   1.877 -0.2020  0.7574 -0.2436
  396WAT      O 1398   0.059   3.289   0.863 -0.3522  0.1545  0.4470
  396WAT     H1 1399   0.053   3.201   0.826 -0.1630  0.8559 -1.3659
  396WAT     H2 1400  -0.024   3.302   0.907 -1.7953  0.2116 -2.0752
  397WAT      O 1401   1.599   2.589   0.876  0.1847 -0.7854 -0.2804
  397WAT     H1 1402   1.674   2.647   0.891  0.1472 -1.0158  0.8560
  397WAT     H2 1403   1.591   2.586   0.780 -0.5857  2.0660 -0.4003
  398WAT      O 1404   1.651   2.188   3.588 -0.8007 -0.7581  0.6267
  398WAT     H1 1405   1.706   2.221   3.659 -1.7853  0.5953  0.7980
  398WAT     H2 1406   1.711   2.139   3.532  0.7047  1.0533  0.5464
  399WAT      O 1407   3.518   1.234   1.587  0.4262  0.1061  0.7095
  399WAT     H1 1408   3.564   1.297   1.532  0.0677  0.6861  1.0556
  399WAT     H2 1409   3.523   1.152   1.540 -0.0349  0.6298 -0.2821
  400WAT      O 1410   4.165   3.536   1.420 -0.1928  0.2127  0.3721
  400WAT     H1 1411   4.258   3.556   1.404 -0.0729 -1.0463 -0.7485
  400WAT     H2 1412   4.124   3.621   1.435  0.5652  1.1726 -2.3659
  401WAT      O 1413   3.252   0.289   3.804  0.6695 -0.3960  0.5944
  401WAT     H1 1414   3.279   0.366   3.854 -3.2429  2.6023 -1.3950
  401WAT     H2 1415   3.293   0.300   3.718  0.6235 -0.9321  0.4994
  402WAT      O 1416   0.081   1.690   2.233  0.4785 -0.3032 -0.4020
  402WAT     H1 1417   0.157   1.649   2.273  1.2045 -1.0752 -2.4171
  402WAT     H2 1418   0.088   1.782   2.255  1.1057 -0.6178  0.7594
  403WAT      O 1419   1.683   4.557   0.859  0.4391  0.3381 -0.2555
  403WAT     H1 1420   1.623   4.631   0.866  0.0451 -0.0463  0.5268
  403WAT     H2 1421   1.742   4.566   0.934 -1.3124 -1.6062  1.4791
  404WAT      O 1422   1.886   2.591   3.385 -0.1555  0.0273  0.2438
  404WAT     H1 1423   1.792   2.584   3.401 -0.1333  0.5810  0.6225
  404WAT     H2 1424   1.912   2.673   3.427  0.7669 -0.8550  1.4861
  405WAT      O 1425   0.701   3.116   1.849 -1.2190  0.4450  0.8704
  405WAT     H1 1426   0.770   3.064   1.890 -0.9888 -0.3719 -0.5141
  405WAT     H2 1427   0.739   3.204   1.840  0.1819 -0.3050 -1.0954
  406WAT      O 1428   1.094   1.461   0.643 -0.2875 -0.2490  0.6697
  406WAT     H1 1429   1.162   1.440   0.707 -1.2964 -1.7432  1.3066
  406WAT     H2 1430   1.076   1.554   0.658  1.3571  0.1036  0.6911
  407WAT      O 1431   1.878   2.676   4.888  0.2478  0.7030  0.1567
  407WAT     H1 1432   1.869   2.592   4.934  0.0336  0.3497 -0.5040
  407WAT     H2 1433   1.878   2.742   4.957 -0.7180  0.2350  0.6302
  408WAT      O 1434   2.597   1.727   1.356  0.1988 -0.4058  0.1402
  408WAT     H1 1435   2.683   1.764   1.376 -0.2661  0.9910 -0.3017
  408WAT     H2 1436   2.567   1.776   1.280 -2.7035  2.1532  2.6178
  409WAT      O 1437   4.171   3.656   5.649 -0.1376 -0.3128 -0.7219
  409WAT     H1 1438   4.118   3.587   5.689 -0.4033  0.7386  0.8264
  409WAT     H2 1439   4.225   3.689   5.721  1.2548 -0.0757 -1.8372
  410WAT      O 1440   0.909   1.482   1.259  0.0857 -0.0261  0.2877
  410WAT     H1 1441   0.914   1.390   1.283 -2.4157 -0.1753  0.4977
  410WAT     H2 1442   0.912   1.483   1.164  1.5799 -0.1712  0.3178
  411WAT      O 1443   2.651   2.599   4.428 -0.2042  0.3358 -0.1407
  411WAT     H1 1444   2.606   2.601   4.513 -0.9862  1.5371 -0.5552
  411WAT     H2 1445   2.708   2.677   4.430 -0.3625  0.4700 -0.7860
  412WAT      O 1446   2.627   5.157   3.366 -0.3256 -0.1986  0.2471
  412WAT     H1 1447   2.594   5.247   3.374  1.3087  0.4116  0.4076
  412WAT     H2 1448   2.550   5.106   3.341 -1.2106  1.3026 -0.2213
  413WAT      O 1449   1.348   3.090   5.631 -0.3213 -0.5263  0.3168
  413WAT     H1 1450   1.382   3.053   5.713 -0.2372 -1.0464  0.0543
  413WAT     H2 1451   1.343   3.015   5.572  0.4676  0.0031 -0.4347
  414WAT      O 1452   4.988   2.918   4.682 -0.3145  0.0472  0.1016
  414WAT     H1 1453   4.910   2.973   4.669  0.0399  0.1170 -2.1961
  414WAT     H2 1454   4.989   2.861   4.605  2.2867  0.5502 -0.3219
  415WAT      O 1455   0.458   1.900   5.044 -0.1608 -0.4495 -0.3665
  415WAT     H1 1456   0.501   1.978   5.007 -0.4442  1.1773  2.3963
  415WAT     H2 1457   0.370   1.931   5.068 -0.4534 -1.7856  0.3607
  416WAT      O 1458   3.485   2.410   4.761  0.0138 -0.2668  0.9106
  416WAT     H1 1459   3.511   2.500   4.777  0.5812 -0.6376  2.1930
  416WAT     H2 1460   3.519   2.361   4.835  0.4176 -1.6889 -0.1612
  417WAT      O 1461   2.486   2.095   4.998  0.3154  0.0663 -0.4307
  417WAT     H1 1462   2.425   2.028   4.967 -0.1338  0.3355 -0.1425
  417WAT     H2 1463   2.474   2.168   4.938 -0.0401  0.3215 -0.0560
  418WAT      O 1464   4.474   2.518   5.547 -0.2504 -0.5586 -0.9212
  418WAT     H1 1465   4.396   2.525   5.492 -1.1568 -1.0137  0.2513
  418WAT     H2 1466   4.446   2.553   5.632  1.3843  1.0300 -0.9874
  419WAT      O 1467   1.100   0.880   4.272  0.2101  0.4780  0.2648
  419WAT     H1 1468   1.183   0.849   4.306  0.7724  2.2771  0.6394
  419WAT     H2 1469   1.103   0.975   4.283 -1.5142  0.6773 -0.5604
  420WAT      O 1470   1.826   3.672   5.328 -0.0359 -0.0808 -0.2254
  420WAT     H1 1471   1.917   3.697   5.312  0.5693 -1.6972  0.4483
  420WAT     H2 1472   1.823   3.650   5.421 -0.4851 -2.3424 -0.7179
  421WAT      O 1473   1.138   1.136   4.340 -0.2621  0.8683 -0.0174
  421WAT     H1 1474   1.067   1.178   4.387  0.6757  0.8380  1.5093
  421WAT     H2 1475   1.214   1.147   4.398  0.5800 -0.6116 -0.7957
  422WAT      O 1476   3.126   0.404   3.528 -0.6075 -0.2189 -0.0270
  422WAT     H1 1477   3.051   0.361   3.487  0.9261 -1.6742 -1.4220
  422WAT     H2 1478   3.203   0.366   3.486  1.0626 -0.5465  2.9803
  423WAT      O 1479   0.702   3.951   0.302  0.2514 -0.0279 -0.0102
  423WAT     H1 1480   0.699   4.019   0.235  2.2274 -0.9990 -1.1703
  423WAT     H2 1481   0.651   3.879   0.266  0.9524 -0.3870 -0.3065
  424WAT      O 1482   3.253   3.411   4.669 -0.1114 -0.1907  0.1867
  424WAT     H1 1483   3.318   3.469   4.630 -0.8199 -0.0014 -0.7459
  424WAT     H2 1484   3.212   3.464   4.737 -1.4425  0.7944 -1.3172
  425WAT      O 1485   4.877   2.164   2.218 -0.4198  1.1574  0.1792
  425WAT     H1 1486   4.868   2.254   2.184 -1.1111  1.0846  0.1547
  425WAT     H2 1487   4.837   2.168   2.305 -0.7117  0.8045  0.0608
  426WAT      O 1488   1.459   2.726   2.731 -0.0913 -0.1134 -0.0399
  426WAT     H1 1489   1.519   2.658   2.764 -0.4651 -0.1933  0.4919
  426WAT     H2 1490   1.397   2.678   2.675 -0.3891 -0.2272  0.3804
  427WAT      O 1491   2.410   1.212   3.562  0.3304  0.1689  0.8026
  427WAT     H1 1492   2.497   1.252   3.558  1.0816 -1.4022  0.4009
  427WAT     H2 1493   2.391   1.206   3.655  0.3606  1.1201  0.8726
  428WAT      O 1494   2.393   3.042   0.889  0.1793 -0.7904 -0.3071
  428WAT     H1 1495   2.460   3.032   0.957 -0.3212  3.2218  1.0227
  428WAT     H2 1496   2.442   3.038   0.807  2.0237  1.3402  0.6058
  429WAT      O 1497   2.792   0.037   2.638 -0.0168 -0.1123 -0.3680
  429WAT     H1 1498   2.878   0.078   2.623 -0.7916  1.7014 -0.1096
  429WAT     H2 1499   2.812  -0.056   2.650  1.5034 -0.4665 -4.2546
  430WAT      O 1500   4.292   2.349   2.848 -0.7825 -0.2896 -0.2928
  430WAT     H1 1501   4.366   2.406   2.868 -0.8385  0.0700 -1.1008
  430WAT     H2 1502   4.332   2.266   2.823 -0.5500  0.3723 -2.3262
  431WAT      O 1503   4.853   2.770   0.624 -0.8557  0.0178 -0.3595
  431WAT     H1 1504   4.852   2.788   0.530 -1.2709  1.2152 -0.1395
  431WAT     H2 1505   4.946   2.769   0.646 -0.7955  1.2607 -0.5168
  432WAT      O 1506   3.413   5.007   4.116 -0.4679  1.0768  0.3301
  432WAT     H1 1507   3.501   5.043   4.123 -0.8827  2.1017  0.5076
  432WAT     H2 1508   3.387   4.990   4.207 -0.1610 -0.0084  0.2346
  433WAT      O 1509   0.236   3.776   0.279 -0.5529 -0.1149 -0.0037
  433WAT     H1 1510   0.325   3.796   0.249  0.6291 -1.6310  2.1819
  433WAT     H2 1511   0.194   3.735   0.203  1.3667 -1.3098 -0.5156
  434WAT      O 1512   3.004   4.776   1.804  0.4044 -0.1676  0.0125
  434WAT     H1 1513   2.921   4.764   1.851  1.2917 -0.8489  1.4621
  434WAT     H2 1514   3.061   4.708   1.838  1.5909  0.3250 -0.9281
  435WAT      O 1515   3.584   2.267   0.306 -0.0700 -0.1286 -0.1751
  435WAT     H1 1516   3.605   2.358   0.329  1.0814 -0.5809  0.6842
  435WAT     H2 1517   3.655   2.240   0.249 -0.8355 -0.2574 -1.0789
  436WAT      O 1518   1.397   2.505   3.550 -0.2469 -0.0414  0.4096
  436WAT     H1 1519   1.315   2.463   3.525 -0.7890  1.6748 -0.8841
  436WAT     H2 1520   1.378   2.548   3.634 -0.8552  0.8070 -0.1538
  437WAT      O 1521   3.984   3.020   3.155  0.6060 -0.3919 -0.2198
  437WAT     H1 1522   4.037   2.985   3.084  1.1968 -1.3030  0.6541
  437WAT     H2 1523   3.896   2.988   3.138  0.4685  0.4884 -1.2503
  438WAT      O 1524   4.514   3.754   2.169 -0.2295  0.4251 -0.3653
  438WAT     H1 1525   4.464   3.831   2.141  0.0814  1.6396  2.1912
  438WAT     H2 1526   4.529   3.768   2.262  0.7478 -2.2626 -0.0467
  439WAT      O 1527   1.257   2.189   4.194 -0.7039  0.2510  0.1504
  439WAT     H1 1528   1.264   2.096   4.174 -0.0636  0.0878  1.0561
  439WAT     H2 1529   1.320   2.203   4.265 -0.1433  1.5508 -0.5539
  440WAT      O 1530   1.075   5.263   4.038  0.3261 -0.0598  0.1469
  440WAT     H1 1531   1.119   5.262   3.953 -2.0677 -0.6818 -1.1941
  440WAT     H2 1532   1.096   5.178   4.077  1.0439  0.0312 -0.0274
  441WAT      O 1533   0.513   3.258   0.458 -0.1778 -0.2533  0.5703
  441WAT     H1 1534   0.460   3.275   0.380 -0.3167  1.4857  1.0004
  441WAT     H2 1535   0.587   3.206   0.427 -0.9655 -0.8045 -0.4418
  442WAT      O 1536   0.711   2.103   2.730 -0.1406 -0.2407  0.0835
  442WAT     H1 1537   0.656   2.071   2.801 -1.1986  1.0781 -0.1069
  442WAT     H2 1538   0.715   2.198   2.743  2.2808 -0.2784  0.2056
  443WAT      O 1539   2.416   3.027   5.131 -0.2561  0.1068 -0.2122
  443WAT     H1 1540   2.468   3.108   5.137 -1.2450  0.8317 -1.0576
  443WAT     H2 1541   2.481   2.958   5.119  0.6420  0.6947  1.0007
  444WAT      O 1542   0.778   1.676   4.002 -0.0020 -0.8540 -0.1462
  444WAT     H1 1543   0.698   1.640   3.965 -1.4560  1.6509  0.2734
  444WAT     H2 1544   0.789   1.760   3.957  1.7031 -0.5805  0.6953
  445WAT      O 1545   0.883   3.664   2.984 -0.4817 -0.5816 -0.2587
  445WAT     H1 1546   0.902   3.746   2.938  0.3262  0.3310  1.5944
  445WAT     H2 1547   0.799   3.635   2.949 -0.6813  0.9226 -1.0803
  446WAT      O 1548   1.652   1.790   0.639  0.3926  0.4187  0.0636
  446WAT     H1 1549   1.583   1.723   0.642  1.7832 -1.0471  1.5311
  446WAT     H2 1550   1.672   1.799   0.546 -0.1140 -0.9386 -0.2104
  447WAT      O 1551   0.103   2.665   1.883 -0.1970 -0.2828  0.3735
  447WAT     H1 1552   0.062   2.579   1.894 -1.4372  0.3755  1.1937
  447WAT     H2 1553   0.149   2.659   1.799 -1.0000 -1.4598 -0.0149
  448WAT      O 1554   2.274   1.771   0.467 -0.3927  0.1184  0.1700
  448WAT     H1 1555   2.222   1.696   0.439  0.2915 -0.7046  1.0555
  448WAT     H2 1556   2.211   1.828   0.511 -1.6132  1.6623 -3.1605
  449WAT      O 1557   2.816   4.692   3.025 -0.5405 -0.2849  0.4656
  449WAT     H1 1558   2.843   4.624   2.962 -2.3578 -1.2106  0.6210
  449WAT     H2 1559   2.898   4.724   3.062  0.4489 -1.3062 -0.7463
  450WAT      O 1560   0.185   3.000   5.177  0.3388  0.5251 -0.0652
  450WAT     H1 1561   0.279   3.011   5.158  0.0579  1.2364 -1.1418
  450WAT     H2 1562   0.160   2.922   5.127  0.3618  0.3040  0.2651
  451WAT      O 1563   1.095   2.850   3.008 -0.5144  0.0561 -0.0899
  451WAT     H1 1564   1.162   2.861   3.076 -1.4548  0.0986  0.8444
  451WAT     H2 1565   1.131   2.896   2.932  0.9712 -0.7889  0.0592
  452WAT      O 1566   4.802   2.769   5.430  0.1865  0.0315  0.1654
  452WAT     H1 1567   4.838   2.853   5.401  1.7007 -0.7184 -0.2369
  452WAT     H2 1568   4.825   2.764   5.523  1.3256 -0.5142 -0.1267
  453WAT      O 1569   1.058   2.675   5.661 -1.1136 -0.2026  0.2987
  453WAT     H1 1570   1.009   2.603   5.621 -0.2693 -2.9591  3.7179
  453WAT     H2 1571   1.149   2.656   5.641 -0.9701  0.8017 -0.0290
  454WAT      O 1572   2.563   2.611   1.531 -0.3085  0.2367 -0.4440
  454WAT     H1 1573   2.494   2.614   1.597  0.0822 -0.9297  0.0485
  454WAT     H2 1574   2.587   2.518   1.526  0.0267  0.3672 -1.8582
  455WAT      O 1575   3.170   3.952   4.431  0.1808  0.0184 -0.3885
  455WAT     H1 1576   3.078   3.962   4.407  0.6701  2.2315 -1.5951
  455WAT     H2 1577   3.217   4.006   4.368  2.1588  0.4722  1.3775
  456WAT      O 1578   4.834   5.189   2.825 -0.5450  0.0899  0.0879
  456WAT     H1 1579   4.802   5.121   2.765 -1.9959  0.1617  0.7270
  456WAT     H2 1580   4.914   5.152   2.862 -1.2060 -1.2123  0.2892
  457WAT      O 1581   4.890   4.320   4.190  0.2118  0.0371 -0.4168
  457WAT     H1 1582   4.879   4.258   4.117 -0.5736 -1.3074  0.7977
  457WAT     H2 1583   4.983   4.312   4.213  0.1846 -0.4969 -0.4595
  458WAT      O 1584   4.473   2.806   5.047 -0.3126 -0.0713 -0.1408
  458WAT     H1 1585   4.450   2.894   5.016  1.5481 -0.6712 -3.7447
  458WAT     H2 1586   4.559   2.818   5.088  0.2289 -0.2738 -1.1979
  459WAT      O 1587   1.066   1.745   3.444  0.6097 -0.4031  0.2968
  459WAT     H1 1588   1.097   1.834   3.426  1.2078 -0.8517 -0.9401
  459WAT     H2 1589   1.127   1.688   3.398 -0.0649 -1.4489  0.6561
  460WAT      O 1590   4.426   4.017   4.207 -0.8553  0.3095  0.5330
  460WAT     H1 1591   4.409   3.967   4.287 -0.8044 -0.3246  0.1638
  460WAT     H2 1592   4.506   3.978   4.171  0.2367  1.9015  1.1865
  461WAT      O 1593   4.516   4.925   3.615  0.1341  0.4867  0.7017
  461WAT     H1 1594   4.508   4.855   3.680  0.2928  0.0071  0.2093
  461WAT     H2 1595   4.608   4.951   3.619  0.0436  0.7734  0.9873
  462WAT      O 1596   4.075   1.978   2.692 -0.2791 -0.4301  0.3394
  462WAT     H1 1597   4.043   1.922   2.763  1.4208  0.0313  1.5368
  462WAT     H2 1598   4.169   1.961   2.688 -0.0983  0.6962 -0.7784
  463WAT      O 1599   3.118   3.037   4.173  0.7975  0.4784 -0.2500
  463WAT     H1 1600   3.144   2.946   4.186  0.1228  0.4302  0.8591
  463WAT     H2 1601   3.196   3.087   4.196  0.4516  0.2658  1.4943
  464WAT      O 1602   0.570   3.933   5.747 -0.0648  0.3880 -0.2747
  464WAT     H1 1603   0.515   3.998   5.704 -2.0063 -0.5229  0.6775
  464WAT     H2 1604   0.633   3.984   5.797 -0.0272  1.4824 -1.3961
  465WAT      O 1605   3.316   2.914   4.718  0.2091 -0.6336 -0.1490
  465WAT     H1 1606   3.304   2.967   4.639 -0.9412 -2.7976 -1.5343
  465WAT     H2 1607   3.407   2.929   4.743  0.4037  0.6603 -1.4743
  466WAT      O 1608   2.561   3.312   5.064  0.3685 -0.3401 -0.5952
  466WAT     H1 1609   2.612   3.314   4.983 -0.3964  4.7213 -1.2919
  466WAT     H2 1610   2.471   3.326   5.035 -0.2419 -0.6422  1.0720
  467WAT      O 1611   3.123   3.969   0.553  0.1830  0.4071 -0.3731
  467WAT     H1 1612   3.099   4.027   0.625 -1.7435 -0.0374 -0.6020
  467WAT     H2 1613   3.189   3.910   0.591 -1.3347 -0.3125  1.2871
  468WAT      O 1614   4.140   3.252   2.419  0.6705  0.7856 -0.3919
  468WAT     H1 1615   4.220   3.206   2.394  1.2968  1.2275  0.7452
  468WAT     H2 1616   4.070   3.200   2.379  1.3839 -0.8953  0.4322
  469WAT      O 1617   1.788   1.365   0.132  0.0131 -0.0231  0.4853
  469WAT     H1 1618   1.781   1.338   0.041  1.1309 -0.7263  0.5899
  469WAT     H2 1619   1.697   1.372   0.163 -0.3460 -1.3662 -0.2182
  470WAT      O 1620   4.179   2.844   0.656  0.0161 -0.2937 -0.4330
  470WAT     H1 1621   4.271   2.817   0.647 -0.1161 -0.7636 -0.3898
  470WAT     H2 1622   4.158   2.828   0.748  0.9356  3.1581  0.5379
  471WAT      O 1623   3.811   2.084   4.325 -0.7322  0.0626  0.0983
  471WAT     H1 1624   3.718   2.062   4.326 -0.8591  0.6101  1.0982
  471WAT     H2 1625   3.836   2.089   4.417  0.2293  0.1920 -0.1529
  472WAT      O 1626   2.955   3.010   5.324 -0.3930  0.6583  0.0321
  472WAT     H1 1627   2.978   2.927   5.283  0.2887  0.1221  1.4408
  472WAT     H2 1628   2.904   3.056   5.257 -0.9035 -0.9326 -0.7333
  473WAT      O 1629   3.452   2.158   1.573  0.5299  0.1513  0.3594
  473WAT     H1 1630   3.511   2.104   1.626 -0.0362 -0.4236  0.4221
  473WAT     H2 1631   3.393   2.198   1.637 -0.0418 -0.4034  0.1903
  474WAT      O 1632   1.272   1.648   4.811 -0.0617 -0.0794  0.0396
  474WAT     H1 1633   1.263   1.620   4.902  2.2000  0.4336  0.4925
  474WAT     H2 1634   1.242   1.738   4.810  0.7619  0.2135  0.5179
  475WAT      O 1635   0.700   3.249   5.460  0.4910 -0.8680  0.3662
  475WAT     H1 1636   0.641   3.188   5.417 -1.2811  0.4461  0.8330
  475WAT     H2 1637   0.724   3.205   5.542 -1.0298 -0.8367  0.8575
  476WAT      O 1638   1.953   1.418   4.908  0.2254 -0.1133 -0.3459
  476WAT     H1 1639   1.859   1.429   4.921  0.3366 -0.6127  1.0985
  476WAT     H2 1640   1.961   1.363   4.829 -0.7824 -1.6804  0.5865
  477WAT      O 1641   0.551   4.012   3.826  0.1359  0.5558  0.0415
  477WAT     H1 1642   0.502   4.033   3.905 -0.8839  2.0219 -0.9327
  477WAT     H2 1643   0.521   4.076   3.761  0.2739 -1.1591 -1.8056
  478WAT      O 1644   0.460   3.055   3.102 -0.1069  0.8855 -0.2988
  478WAT     H1 1645   0.482   3.105   3.023  0.9473 -0.1316 -0.6761
  478WAT     H2 1646   0.400   3.112   3.150 -0.1654  1.8516 -1.4575
  479WAT      O 1647   2.927   3.123   4.332 -0.1033  0.7182 -0.0549
  479WAT     H1 1648   2.972   3.138   4.415 -2.5798  0.5827  1.4119
  479WAT     H2 1649   2.997   3.109   4.269  1.9126  2.3606  1.6801
  480WAT      O 1650   4.117   3.619   2.907  0.7474 -0.9618 -0.0255
  480WAT     H1 1651   4.109   3.604   2.813 -1.5687  0.6189 -0.1629
  480WAT     H2 1652   4.209   3.644   2.920  1.5185 -2.7969 -1.5661
  481WAT      O 1653   1.024   1.702   4.445 -0.0538  0.3834 -0.1164
  481WAT     H1 1654   0.996   1.732   4.359  1.1314 -0.2722 -0.7572
  481WAT     H2 1655   1.005   1.775   4.503  0.4282  1.4005 -1.1938
  482WAT      O 1656   3.833   3.163   4.944  0.5285  0.1124  0.6142
  482WAT     H1 1657   3.768   3.218   4.987  0.4309  0.0497  0.5479
  482WAT     H2 1658   3.847   3.091   5.006 -0.7584 -0.8067 -0.1134
  483WAT      O 1659   3.789   3.747   0.401  0.2728  0.8880  0.4877
  483WAT     H1 1660   3.780   3.656   0.429  0.6641  1.3345  2.1654
  483WAT     H2 1661   3.871   3.749   0.352  0.8567  0.5471  1.4296
  484WAT      O 1662   3.713   3.522   4.920 -0.1604 -0.4991 -0.2003
  484WAT     H1 1663   3.737   3.614   4.909 -1.7786 -0.1221 -1.0255
  484WAT     H2 1664   3.700   3.512   5.014 -1.4569  0.5759 -0.2219
  485WAT      O 1665   4.539   1.307   0.887  0.0309 -0.2577  0.3237
  485WAT     H1 1666   4.534   1.295   0.982  2.2076 -0.7001  0.4258
  485WAT     H2 1667   4.487   1.385   0.871 -0.5797 -0.3044  1.8416
  486WAT      O 1668   0.312   3.363   3.535  0.1801 -0.0463 -0.6178
  486WAT     H1 1669   0.295   3.279   3.576 -2.1359  0.0579 -1.2262
  486WAT     H2 1670   0.407   3.368   3.528  0.4148 -1.9970  0.6453
  487WAT      O 1671   4.392   1.903   2.448 -0.3089  0.0682  0.5716
  487WAT     H1 1672   4.449   1.886   2.373  1.5132 -1.7590  2.2124
  487WAT     H2 1673   4.313   1.853   2.430  0.2127 -0.5568 -0.0505
  488WAT      O 1674   4.762   2.115   0.341 -0.0112 -0.5519  0.2037
  488WAT     H1 1675   4.757   2.210   0.335  0.3798 -0.6139 -2.1241
  488WAT     H2 1676   4.841   2.092   0.292  0.4350 -2.0324  1.5421
  489WAT      O 1677   4.749   1.459   0.752 -0.1879  0.2152 -0.1534
  489WAT     H1 1678   4.717   1.372   0.777  1.6914 -0.1554  1.1804
  489WAT     H2 1679   4.670   1.507   0.727 -1.1456 -2.2436 -2.2404
  490WAT      O 1680   1.080   3.316   0.694 -0.0374  0.0806  0.2215
  490WAT     H1 1681   0.990   3.336   0.670  0.3732  0.0549 -1.4953
  490WAT     H2 1682   1.096   3.229   0.658  0.6768  0.0848  0.5092
  491WAT      O 1683   0.590   2.710   1.033 -0.9252 -0.1630 -0.0476
  491WAT     H1 1684   0.600   2.735   0.941  0.4502 -1.9782 -0.4416
  491WAT     H2 1685   0.528   2.774   1.068 -0.6961  1.2015 -1.9625
  492WAT      O 1686   0.482   3.630   1.201 -0.1182 -0.1539 -0.1875
  492WAT     H1 1687   0.510   3.540   1.215 -1.8254 -0.5582  0.7998
  492WAT     H2 1688   0.475   3.638   1.105  0.6014 -0.8709 -0.3127
  493WAT      O 1689   4.906   2.765   4.909 -0.2129  0.0835  0.5179
  493WAT     H1 1690   4.869   2.700   4.849  0.7751 -0.1296  0.1303
  493WAT     H2 1691   4.947   2.829   4.852  0.9887 -0.2747  0.9605
  494WAT      O 1692   4.756   2.051   0.600 -0.1883 -0.0855  0.5453
  494WAT     H1 1693   4.715   2.121   0.650 -0.7886 -0.3593  0.4350
  494WAT     H2 1694   4.764   2.086   0.511 -1.5921 -0.5923  0.2041
  495WAT      O 1695   0.203   3.629   0.742 -0.6769  0.3123 -0.3795
  495WAT     H1 1696   0.217   3.598   0.831  0.0766  1.3688 -0.1110
  495WAT     H2 1697   0.290   3.647   0.708 -0.9459 -0.1916 -1.3892
  496WAT      O 1698   2.614   3.544   1.342  0.3601  0.5653  0.1730
  496WAT     H1 1699   2.543   3.566   1.403 -0.1580  0.7096 -0.4733
  496WAT     H2 1700   2.575   3.478   1.285  1.0044  0.0622  0.3081
  497WAT      O 1701   3.339   4.133   4.698 -0.3996 -0.2585 -0.3018
  497WAT     H1 1702   3.282   4.146   4.623 -2.0827 -1.5053  0.6906
  497WAT     H2 1703   3.375   4.045   4.686 -0.0470 -0.1506 -0.0555
  498WAT      O 1704   4.464   3.209   2.967 -0.4075  0.2130  0.5148
  498WAT     H1 1705   4.426   3.224   3.054  0.4822  0.9878  0.7713
  498WAT     H2 1706   4.426   3.277   2.912 -1.8449 -0.9432 -0.0035
  499WAT      O 1707   4.660   0.708   3.171 -1.1511 -0.0602 -0.7351
  499WAT     H1 1708   4.745   0.697   3.215 -2.0687 -0.1993  1.1066
  499WAT     H2 1709   4.605   0.641   3.210 -1.9004 -0.5508 -2.5539
  500WAT      O 1710   3.641   3.173   3.274  0.1464  0.2204 -0.2123
  500WAT     H1 1711   3.711   3.238   3.262  1.3454 -1.2176 -1.5387
  500WAT     H2 1712   3.680   3.108   3.333 -0.3385 -0.2266 -0.3830
  501WAT      O 1713   2.084   1.466   2.128 -0.2911  0.3733 -0.0472
  501WAT     H1 1714   2.119   1.554   2.146  0.1378  0.0321  0.7973
  501WAT     H2 1715   2.080   1.423   2.213 -1.7192 -0.0005 -0.2806
  502WAT      O 1716   3.889   2.289   1.217 -0.8342  0.2128 -0.5895
  502WAT     H1 1717   3.818   2.306   1.280  0.1530  0.6629  0.4553
  502WAT     H2 1718   3.969   2.293   1.270  0.1154  1.4831 -2.0261
  503WAT      O 1719   0.249   2.458   3.335  0.4292  0.0117  0.2200
  503WAT     H1 1720   0.212   2.542   3.310 -1.8274 -1.5245 -2.0887
  503WAT     H2 1721   0.295   2.428   3.256  3.2340 -0.0100  1.7268
  504WAT      O 1722   4.705   2.489   5.410  0.0870  0.1257  0.4171
  504WAT     H1 1723   4.627   2.499   5.464 -1.9496  0.5926 -2.3763
  504WAT     H2 1724   4.715   2.573   5.365 -1.6901 -1.6569 -3.8908
  505WAT      O 1725   3.319   1.685   4.505  0.3382 -0.5121 -0.2157
  505WAT     H1 1726   3.344   1.621   4.438  0.9759  0.3389 -0.8116
  505WAT     H2 1727   3.224   1.695   4.494  0.4231 -0.4331 -0.9594
  506WAT      O 1728   1.965   0.848   1.307  0.1689  0.1024  0.1074
  506WAT     H1 1729   1.878   0.815   1.328  0.3438 -0.1225  0.4762
  506WAT     H2 1730   2.022   0.815   1.377  0.7153 -0.4719 -0.5851
  507WAT      O 1731   0.689   2.127   5.057 -0.5184  0.2707  0.1667
  507WAT     H1 1732   0.716   2.053   5.111 -1.7733 -0.3719 -0.0518
  507WAT     H2 1733   0.738   2.118   4.976 -1.4986 -1.0011 -0.3135
  508WAT      O 1734   0.130   2.143   5.625 -0.3891 -0.0895  0.0691
  508WAT     H1 1735   0.158   2.051   5.628 -1.0754 -0.3182 -0.2535
  508WAT     H2 1736   0.105   2.163   5.716  0.6127  0.0642  0.3242
  509WAT      O 1737   1.548   3.459   0.326 -0.4329  0.4433  0.1665
  509WAT     H1 1738   1.553   3.444   0.231 -0.2349  0.6433  0.1457
  509WAT     H2 1739   1.563   3.373   0.365  0.4604  0.5371  0.0419
  510WAT      O 1740   0.857   2.720   1.530  0.0873 -0.3167  0.3822
  510WAT     H1 1741   0.807   2.721   1.448  1.0315 -0.1278 -0.2094
  510WAT     H2 1742   0.915   2.797   1.523  0.1092 -0.2463  1.2708
  511WAT      O 1743   4.601   3.758   5.820  0.4015  0.5565 -0.4748
  511WAT     H1 1744   4.592   3.680   5.766  1.6543  1.3089 -1.8371
  511WAT     H2 1745   4.647   3.729   5.898 -0.0526 -0.2600 -0.5070
  512WAT      O 1746   2.177   4.263   4.843 -0.1199  0.4900  0.0047
  512WAT     H1 1747   2.139   4.295   4.761 -0.8845  0.2779  0.2712
  512WAT     H2 1748   2.102   4.247   4.900  0.1852 -2.0210 -0.1871
  513WAT      O 1749   0.628   3.243   4.864  0.0706 -0.2322 -0.2074
  513WAT     H1 1750   0.651   3.150   4.868 -0.6566 -0.3958  0.4416
  513WAT     H2 1751   0.712   3.289   4.872  0.2007 -0.7982  2.2460
  514WAT      O 1752   1.707   1.606   5.636 -0.4096  0.2520 -0.1912
  514WAT     H1 1753   1.701   1.627   5.729  0.4278 -1.0799  0.2055
  514WAT     H2 1754   1.801   1.602   5.618 -0.5555 -0.0902 -0.9425
  515WAT      O 1755   1.405   0.862   3.786 -0.7250  0.0441  0.4527
  515WAT     H1 1756   1.337   0.868   3.853 -1.0944  0.7367  0.0343
  515WAT     H2 1757   1.482   0.901   3.827 -0.4743 -1.0614  1.0506
  516WAT      O 1758   0.250   3.395   2.957 -0.5386 -0.0551 -0.6052
  516WAT     H1 1759   0.160   3.373   2.931 -0.5365 -1.4574  0.4387
  516WAT     H2 1760   0.268   3.336   3.030  1.1960  0.3012 -0.7158
  517WAT      O 1761   3.045   3.195   4.568 -0.0170  0.1079  0.0087
  517WAT     H1 1762   2.997   3.166   4.646  1.0232  0.7383  0.9026
  517WAT     H2 1763   3.113   3.253   4.601  1.9944 -1.4678 -1.1149
  518WAT      O 1764   4.236   0.938   3.647 -0.4923  0.7459 -0.2707
  518WAT     H1 1765   4.205   0.983   3.569  0.6813  2.0375 -0.0220
  518WAT     H2 1766   4.215   0.998   3.719  1.4008  1.1006  0.0314
  519WAT      O 1767   0.094   1.802   3.533  0.4070 -0.2731 -0.2254
  519WAT     H1 1768   0.077   1.854   3.611 -0.7733  0.6086 -1.0377
  519WAT     H2 1769   0.014   1.808   3.482  0.4770 -2.3419 -0.6841
  520WAT      O 1770   0.880   3.396   5.343  0.0315  0.0671  0.0545
  520WAT     H1 1771   0.815   3.333   5.371  1.5119 -0.7328  1.8646
  520WAT     H2 1772   0.831   3.459   5.289 -1.9591 -1.1524  0.3612
  521WAT      O 1773   2.761   4.315   3.892 -0.2168 -0.2505  1.2891
  521WAT     H1 1774   2.670   4.319   3.865 -0.4977 -2.0677  1.8811
  521WAT     H2 1775   2.790   4.407   3.892 -1.0042  0.1402 -2.2960
  522WAT      O 1776   3.157   4.695   4.311  0.1647  0.1210  0.2713
  522WAT     H1 1777   3.081   4.655   4.355 -0.1533  0.7259  0.2865
  522WAT     H2 1778   3.123   4.724   4.227  0.2533  0.8136  0.4637
  523WAT      O 1779   2.578   2.547   3.342 -0.1092 -0.4628 -0.0160
  523WAT     H1 1780   2.641   2.601   3.389  0.9980  0.2804 -2.1960
  523WAT     H2 1781   2.530   2.609   3.287 -2.5394 -1.0723  1.2666
  524WAT      O 1782   4.113   1.356   1.119  0.2437  0.4665  0.1843
  524WAT     H1 1783   4.176   1.380   1.187  0.1767  2.5007 -0.3832
  524WAT     H2 1784   4.137   1.411   1.044  1.0629 -2.5543 -1.9184
  525WAT      O 1785   0.194   1.758   0.529  0.1229  0.0317 -0.4018
  525WAT     H1 1786   0.172   1.705   0.606 -0.3570 -0.1750 -0.6783
  525WAT     H2 1787   0.116   1.810   0.512  1.0397  1.8321  0.6579
  526WAT      O 1788   4.065   2.011   5.854 -0.3952 -0.3094  0.1682
  526WAT     H1 1789   4.060   2.106   5.848 -2.6893 -0.3368  0.7572
  526WAT     H2 1790   4.063   1.980   5.764 -0.5933  0.1939 -0.0002
  527WAT      O 1791   3.221   1.478   3.909  0.3288  0.0710  0.2531
  527WAT     H1 1792   3.272   1.398   3.899  0.6131  0.0495  1.6592
  527WAT     H2 1793   3.271   1.544   3.861 -0.1669 -0.6710 -1.3428
  528WAT      O 1794   4.862   2.722   4.499 -0.3465  0.2317 -0.0977
  528WAT     H1 1795   4.935   2.672   4.537 -0.7475 -0.5101 -0.2932
  528WAT     H2 1796   4.783   2.680   4.533 -0.7013  0.1334 -1.0083
  529WAT      O 1797   4.877   2.314   3.418 -0.4540 -0.5768  0.6056
  529WAT     H1 1798   4.838   2.281   3.338  2.7167  0.9832 -1.8136
  529WAT     H2 1799   4.964   2.273   3.421 -0.1506  0.0968  2.7841
  530WAT      O 1800   4.475   5.081   2.984  0.0036 -0.6221 -0.4888
  530WAT     H1 1801   4.436   5.130   3.056  2.4376  0.4102  0.2255
  530WAT     H2 1802   4.445   4.991   2.996 -2.4018  0.1469 -0.2668
  531WAT      O 1803   3.997   3.192   5.781 -0.1811 -0.0005 -0.0402
  531WAT     H1 1804   3.924   3.133   5.765  0.0778 -1.1847  2.6158
  531WAT     H2 1805   4.065   3.137   5.821  1.1445  1.5641 -0.0039
  532WAT      O 1806   0.753   4.460   4.675  0.1051  0.5285 -0.5503
  532WAT     H1 1807   0.684   4.396   4.696  0.4879 -0.4255 -2.0937
  532WAT     H2 1808   0.823   4.440   4.736  0.4377 -0.9268 -1.3642
  533WAT      O 1809   4.618   2.406   4.973 -0.2044 -0.1585  0.2463
  533WAT     H1 1810   4.635   2.326   4.923  1.1571  0.3412 -0.1292
  533WAT     H2 1811   4.696   2.417   5.027 -0.0272  1.3358 -0.2784
  534WAT      O 1812   0.415   4.092   5.557 -0.6995 -0.1836 -0.0317
  534WAT     H1 1813   0.401   4.080   5.463 -0.5139  1.2847 -0.2661
  534WAT     H2 1814   0.361   4.024   5.597  1.1043 -2.4668 -1.2220
  535WAT      O 1815   4.270   1.937   1.449 -0.0845  0.6588  0.0494
  535WAT     H1 1816   4.362   1.958   1.462 -0.2752  0.6389  1.6389
  535WAT     H2 1817   4.268   1.882   1.371  1.2901  0.3365  0.2274
  536WAT      O 1818   3.863   2.843   5.604  0.0745 -0.3305  0.3663
  536WAT     H1 1819   3.828   2.791   5.532  1.3251 -0.6523 -0.0422
  536WAT     H2 1820   3.875   2.781   5.675 -0.1515 -0.2235  0.5007
  537WAT      O 1821   2.805   2.127   5.267 -0.5707 -0.7796  0.9727
  537WAT     H1 1822   2.899   2.111   5.277  0.2972  3.1928  0.9902
  537WAT     H2 1823   2.783   2.089   5.183  1.2967 -1.0273  0.5518
  538WAT      O 1824   2.224   1.359   1.509  0.0370  0.1273  0.8140
  538WAT     H1 1825   2.201   1.324   1.594 -0.3647  0.4243  0.8329
  538WAT     H2 1826   2.175   1.306   1.447 -0.0883  0.2554  0.8028
  539WAT      O 1827   0.154   3.890   4.208 -0.2547 -0.2157 -0.3106
  539WAT     H1 1828   0.064   3.909   4.235  0.3577  1.1587  0.9424
  539WAT     H2 1829   0.201   3.875   4.291  1.6758  3.9703 -0.3724
  540WAT      O 1830   4.601   3.060   5.227  0.2196 -0.8558  0.1790
  540WAT     H1 1831   4.648   3.116   5.166 -2.4939 -1.2769 -2.5057
  540WAT     H2 1832   4.612   2.972   5.193 -4.3275 -0.7859 -2.1889
  541WAT      O 1833   2.318   1.884   4.246 -0.1958 -0.2057 -0.1516
  541WAT     H1 1834   2.354   1.939   4.316 -1.0199 -1.3215  1.2053
  541WAT     H2 1835   2.394   1.849   4.201  0.5339 -2.1758  2.3756
  542WAT      O 1836   3.310   2.887   0.528  0.0476  0.2053 -0.4524
  542WAT     H1 1837   3.379   2.865   0.465  1.3605 -0.2726  1.0766
  542WAT     H2 1838   3.272   2.968   0.494  0.9231  0.1298 -1.6857
  543WAT      O 1839   2.055   1.340   4.065  0.0958 -0.3875 -0.0854
  543WAT     H1 1840   2.032   1.294   4.146  0.7113 -0.5867 -0.0166
  543WAT     H2 1841   2.085   1.426   4.094 -0.5985 -0.1071 -0.1789
  544WAT      O 1842   4.492   2.278   4.371 -0.2065 -0.6252 -0.4109
  544WAT     H1 1843   4.539   2.355   4.404 -2.9357  1.0638 -0.2107
  544WAT     H2 1844   4.461   2.233   4.449 -2.0284  0.3543 -0.5295
  545WAT      O 1845   0.874   5.631   3.046 -0.0618 -0.1876 -0.4705
  545WAT     H1 1846   0.956   5.678   3.028  0.0873 -0.3946 -0.3244
  545WAT     H2 1847   0.899   5.539   3.047 -0.3791 -0.2792 -0.8734
  546WAT      O 1848   3.072   4.434   3.600 -0.4921  0.1125 -0.6465
  546WAT     H1 1849   3.140   4.399   3.657  0.8898  0.6570 -1.8995
  546WAT     H2 1850   2.991   4.393   3.632  0.3344 -0.2100  1.1557
  547WAT      O 1851   3.437   0.998   2.114  0.5820 -0.0109 -0.4433
  547WAT     H1 1852   3.416   0.967   2.027  0.0161 -0.1353 -0.2653
  547WAT     H2 1853   3.441   0.919   2.168 -1.3967  0.2277  0.1226
  548WAT      O 1854   0.308   3.010   1.956 -0.0372 -1.0310 -0.2735
  548WAT     H1 1855   0.233   3.035   2.010 -0.6333 -0.8604 -1.1564
  548WAT     H2 1856   0.353   2.942   2.006 -0.6233 -0.9323  0.3927
  549WAT      O 1857   2.737   3.196   1.082 -0.4986 -0.2094  0.2785
  549WAT     H1 1858   2.721   3.206   0.989  1.7011  3.0009  0.1060
  549WAT     H2 1859   2.826   3.163   1.089  0.8743  3.2429  1.0910
  550WAT      O 1860   4.940   3.095   0.508 -0.4577 -0.8178  0.4079
  550WAT     H1 1861   4.849   3.125   0.507 -0.3137 -0.2467  1.9495
  550WAT     H2 1862   4.943   3.025   0.442 -1.5810  0.3099 -0.9058
  551WAT      O 1863   1.422   4.060   0.387  0.0804  0.4935  0.5031
  551WAT     H1 1864   1.471   4.110   0.452  0.3072  1.8108 -0.6392
  551WAT     H2 1865   1.399   4.124   0.319 -0.1740 -0.8196 -0.6988
  552WAT      O 1866   3.803   2.960   0.390 -0.5519  0.0733  0.2598
  552WAT     H1 1867   3.838   3.027   0.331 -2.2904  0.3932 -0.4581
  552WAT     H2 1868   3.841   2.982   0.476  0.7629  0.5430 -0.4022
  553WAT      O 1869   1.463   4.403   4.616 -0.0336 -0.0399  0.3420
  553WAT     H1 1870   1.507   4.451   4.547 -0.4697 -3.7667 -2.8493
  553WAT     H2 1871   1.376   4.384   4.581 -0.3189 -1.9931  1.8879
  554WAT      O 1872   0.512   3.861   1.357 -0.5256  0.3019 -0.3797
  554WAT     H1 1873   0.502   3.786   1.299 -0.0277 -0.0668 -0.0033
  554WAT     H2 1874   0.604   3.888   1.345 -0.6801  0.8027 -0.4583
  555WAT      O 1875  -0.010   2.464   0.792  0.3631 -0.3402 -0.0880
  555WAT     H1 1876   0.032   2.378   0.791 -0.1135 -0.5713 -0.3262
  555WAT     H2 1877  -0.017   2.488   0.700  1.1184  0.2707  0.0000
  556WAT      O 1878   0.159   1.222   2.315  0.4876 -0.0468  0.4263
  556WAT     H1 1879   0.208   1.297   2.350  2.4241 -0.5978 -0.9778
  556WAT     H2 1880   0.225   1.167   2.273 -1.1024 -1.8014  0.0961
  557WAT      O 1881   2.726   3.795   0.967  0.5079  0.4348 -0.2957
  557WAT     H1 1882   2.700   3.884   0.945 -0.7839  0.3850  0.8647
  557WAT     H2 1883   2.729   3.793   1.063 -0.2857 -0.9508 -0.2631
  558WAT      O 1884   4.155   2.357   1.624 -0.4277 -0.8434  0.2959
  558WAT     H1 1885   4.099   2.283   1.647 -1.6530  0.0919  0.4591
  558WAT     H2 1886   4.109   2.399   1.551  1.6816 -1.8264 -1.7220
  559WAT      O 1887   1.387   3.453   3.910 -0.7252 -0.4297 -0.2830
  559WAT     H1 1888   1.305   3.452   3.959 -1.1276  1.3348 -0.8296
  559WAT     H2 1889   1.378   3.381   3.847 -1.7449 -0.4205 -0.1660
  560WAT      O 1890   2.482   1.444   0.260 -0.1131  0.0782  0.1384
  560WAT     H1 1891   2.389   1.454   0.239 -0.0578  0.5877  0.1398
  560WAT     H2 1892   2.525   1.442   0.175 -0.1415 -0.3359  0.1322
  561WAT      O 1893   4.205   0.211   2.842 -0.0335  0.3341 -0.2653
  561WAT     H1 1894   4.280   0.260   2.875 -1.9437  1.2512  3.2539
  561WAT     H2 1895   4.133   0.274   2.841 -1.5367 -1.2959 -0.0770
  562WAT      O 1896   4.033   1.500   4.323  0.2062 -0.2737  0.3898
  562WAT     H1 1897   4.101   1.550   4.276  1.0904 -1.6434  0.1467
  562WAT     H2 1898   4.075   1.416   4.342 -0.6052 -0.2593  2.4440
  563WAT      O 1899   0.515   5.078   2.205 -0.1224  0.2088 -0.3045
  563WAT     H1 1900   0.560   5.161   2.192  1.1154 -0.4629 -0.4682
  563WAT     H2 1901   0.564   5.035   2.275 -0.1667 -0.7613 -0.8470
  564WAT      O 1902   4.572   3.794   1.199 -0.4541  0.5298 -0.1556
  564WAT     H1 1903   4.549   3.878   1.239 -1.7468  0.2450 -0.2784
  564WAT     H2 1904   4.666   3.801   1.184 -0.3042  1.4418  1.0400
  565WAT      O 1905   3.295   2.807   3.345  0.8121  0.1808  0.6845
  565WAT     H1 1906   3.367   2.830   3.403 -0.3499  1.9014  1.5193
  565WAT     H2 1907   3.295   2.876   3.279  0.6399 -0.4622 -0.0093
  566WAT      O 1908   3.278   0.601   1.869  0.3822  0.1705  0.0439
  566WAT     H1 1909   3.274   0.554   1.786 -0.1452 -0.8599  0.6247
  566WAT     H2 1910   3.186   0.614   1.893  0.5291  0.6272  0.3744
  567WAT      O 1911   1.794   4.047   4.804 -0.0123  0.0630  0.1719
  567WAT     H1 1912   1.784   4.002   4.720  0.6231  0.6370 -0.2191
  567WAT     H2 1913   1.747   4.129   4.793  3.9289  2.4125 -1.3969
  568WAT      O 1914   1.714   2.339   2.368  0.0338  0.1486 -0.5003
  568WAT     H1 1915   1.621   2.342   2.392 -0.2595  2.2567 -1.5857
  568WAT     H2 1916   1.733   2.246   2.354 -1.7613 -0.3730  0.2880
  569WAT      O 1917   3.082   3.239   4.970 -0.3794  0.3175 -0.1532
  569WAT     H1 1918   2.995   3.203   4.986 -0.2783  1.1833  3.1478
  569WAT     H2 1919   3.074   3.332   4.993  1.8758 -0.0801  2.9097
  570WAT      O 1920   3.843   2.506   5.111 -0.1268  0.4553 -0.7251
  570WAT     H1 1921   3.899   2.509   5.033  1.8583  1.5870  0.6401
  570WAT     H2 1922   3.869   2.425   5.156  0.8976  1.2733  0.2058
  571WAT      O 1923   4.602   3.079   0.756  0.1251  0.2017  0.1493
  571WAT     H1 1924   4.666   3.025   0.803  0.5217  1.0442  0.5995
  571WAT     H2 1925   4.555   3.126   0.824  0.2367  0.9202 -0.2561
  572WAT      O 1926   2.627   4.434   1.352  0.0295  0.2142  0.0588
  572WAT     H1 1927   2.683   4.510   1.336  1.3462 -0.7854 -0.2543
  572WAT     H2 1928   2.560   4.466   1.413  0.2308  1.7493 -0.4853
  573WAT      O 1929   3.239   2.444   2.669  0.0680 -0.4955  0.0658
  573WAT     H1 1930   3.174   2.499   2.624  2.1309  0.2154 -2.2400
  573WAT     H2 1931   3.231   2.358   2.627 -1.8373 -1.5597  2.3629
  574WAT      O 1932   0.884   5.266   3.292 -0.5512  0.1112 -0.3147
  574WAT     H1 1933   0.901   5.358   3.275 -3.2238  0.3326 -2.3816
  574WAT     H2 1934   0.961   5.221   3.255 -0.4943  1.3827 -1.8863
  575WAT      O 1935   4.127   2.602   2.460 -0.3671 -0.0281 -0.1291
  575WAT     H1 1936   4.144   2.663   2.388 -0.4527  1.7082  1.2646
  575WAT     H2 1937   4.211   2.556   2.471  0.9113  2.3895  1.0755
  576WAT      O 1938   2.163   4.216   0.679  0.0718  0.2262 -0.2314
  576WAT     H1 1939   2.085   4.216   0.735 -0.3629  0.4979 -0.8345
  576WAT     H2 1940   2.236   4.202   0.740 -0.4549 -0.1576  0.3186
  577WAT      O 1941   2.341   0.737   1.356 -0.7249 -0.3890 -0.1190
  577WAT     H1 1942   2.400   0.799   1.397 -1.5750  0.5692 -0.2901
  577WAT     H2 1943   2.265   0.734   1.414 -0.4664 -1.7195  0.1802
  578WAT      O 1944   1.140   2.007   3.388  0.2883  0.6648 -0.1767
  578WAT     H1 1945   1.236   2.015   3.391  0.3433  0.7134 -1.5437
  578WAT     H2 1946   1.110   2.054   3.466  1.3210  1.7684 -0.4111
  579WAT      O 1947   2.966   4.681   3.470  0.2750  0.4353 -0.4949
  579WAT     H1 1948   2.950   4.743   3.541  0.1353 -0.0258 -0.1140
  579WAT     H2 1949   3.037   4.626   3.502  0.1536  0.1707 -0.6770
  580WAT      O 1950   4.056   1.909   5.295 -0.1606  0.2365 -0.2490
  580WAT     H1 1951   4.089   1.865   5.217 -1.4698 -2.8864  0.7662
  580WAT     H2 1952   3.967   1.874   5.305 -0.4543  1.4781  1.9447
  581WAT      O 1953   1.550   2.996   3.207  0.5255 -0.5839 -0.0852
  581WAT     H1 1954   1.614   3.037   3.149 -0.3104 -0.0631 -0.6728
  581WAT     H2 1955   1.512   2.926   3.155 -0.2313 -0.1102 -0.1868
  582WAT      O 1956   2.652   3.321   1.903 -0.2633 -0.3991  0.0057
  582WAT     H1 1957   2.704   3.325   1.823  0.9417  0.3699  0.7909
  582WAT     H2 1958   2.631   3.228   1.913  0.9620 -0.7392 -0.3691
  583WAT      O 1959   4.045   3.108   2.724  0.1809  0.5784  0.0023
  583WAT     H1 1960   4.073   3.087   2.813  2.5675  0.5050 -0.7008
  583WAT     H2 1961   4.071   3.032   2.672 -0.5963  0.8958 -0.8799
  584WAT      O 1962   0.384   4.095   1.258 -0.5201  0.1239  0.0336
  584WAT     H1 1963   0.430   4.016   1.285 -0.0676  0.8422  1.4951
  584WAT     H2 1964   0.445   4.139   1.199 -0.9881 -0.8393 -1.2180
  585WAT      O 1965   1.932   5.581   3.845  0.1073 -0.0581 -0.0437
  585WAT     H1 1966   1.908   5.599   3.754 -0.4057 -0.5551 -0.0163
  585WAT     H2 1967   1.956   5.666   3.881 -1.1421  0.3900 -0.2315
  586WAT      O 1968   3.632   3.340   0.636 -0.1267 -0.2131 -0.0482
  586WAT     H1 1969   3.603   3.417   0.685  0.6320 -0.2426  0.4683
  586WAT     H2 1970   3.563   3.276   0.649 -0.0053 -0.1707  0.8909
  587WAT      O 1971   3.628   2.937   2.078  0.4115 -0.5654  0.4110
  587WAT     H1 1972   3.548   2.915   2.031 -0.9961  1.0144  1.9197
  587WAT     H2 1973   3.628   2.879   2.154 -1.2393  1.6582  2.2735
  588WAT      O 1974   3.388   2.342   3.149  0.6758  0.2125 -0.5631
  588WAT     H1 1975   3.354   2.430   3.161  2.7986  0.9605  0.5678
  588WAT     H2 1976   3.468   2.340   3.201  0.3962 -2.5862 -0.0742
  589WAT      O 1977   0.149   1.881   5.600  0.1521 -0.5014  0.3059
  589WAT     H1 1978   0.210   1.873   5.526 -1.9496 -0.7142 -1.5115
  589WAT     H2 1979   0.135   1.791   5.628 -0.8330 -0.6768 -0.6494
  590WAT      O 1980   1.692   5.157   3.139  0.6077  0.0327  0.0699
  590WAT     H1 1981   1.716   5.249   3.151  0.4419  0.2126 -0.8707
  590WAT     H2 1982   1.655   5.131   3.223  0.5167  0.8779  0.3044
  591WAT      O 1983   4.720   0.318   2.081 -0.1909 -0.2314  0.2367
  591WAT     H1 1984   4.752   0.407   2.072 -2.1283  0.5336  0.4609
  591WAT     H2 1985   4.669   0.303   2.001 -0.0390 -1.0769  0.2914
  592WAT      O 1986   4.669   2.769   1.873  0.1720 -0.0815  0.0132
  592WAT     H1 1987   4.690   2.845   1.819  1.6740 -0.4783  0.0121
  592WAT     H2 1988   4.576   2.753   1.856  0.1853  0.8704 -1.0832
  593WAT      O 1989   0.345   2.788   3.144  0.1228  0.0637  0.0564
  593WAT     H1 1990   0.434   2.764   3.168  0.4872  0.4664 -0.8409
  593WAT     H2 1991   0.352   2.877   3.111 -0.3617 -0.3740 -1.3195
  594WAT      O 1992   4.891   0.734   3.528 -0.3820  0.0268 -0.1682
  594WAT     H1 1993   4.898   0.702   3.438 -0.0301 -3.6525  1.0006
  594WAT     H2 1994   4.799   0.721   3.550 -0.1172 -0.7820  0.5095
  595WAT      O 1995   0.270   2.983   3.526 -0.6557 -0.4932 -0.5790
  595WAT     H1 1996   0.362   2.961   3.511  0.7715  4.1259 -0.2588
  595WAT     H2 1997   0.232   2.984   3.438  0.8856  1.6801 -1.3348
  596WAT      O 1998   0.384   1.256   2.057  0.3594 -0.4112 -0.2205
  596WAT     H1 1999   0.365   1.342   2.093 -0.1224 -0.7319  0.3042
  596WAT     H2 2000   0.410   1.204   2.133 -0.3054 -0.9920 -0.3850
  597WAT      O 2001   4.710   1.434   3.135 -0.1423  0.2972 -0.0464
  597WAT     H1 2002   4.615   1.439   3.136 -0.2470 -1.2988  1.2286
  597WAT     H2 2003   4.737   1.509   3.081 -2.1159  0.3332 -1.0675
  598WAT      O 2004   0.929   0.679   4.191 -0.2553  1.2138 -0.7851
  598WAT     H1 2005   0.986   0.744   4.231 -0.1250  0.3161  0.5897
  598WAT     H2 2006   0.962   0.595   4.224 -1.4230  0.5728 -1.1700
  599WAT      O 2007   3.299   1.848   0.816  0.2473  0.0318  0.3050
  599WAT     H1 2008   3.243   1.912   0.772 -0.6593 -0.6478  0.4477
  599WAT     H2 2009   3.326   1.789   0.746 -0.0629 -0.2420  0.4154
  600WAT      O 2010   3.645   2.403   4.322 -0.1722 -0.4133 -0.0720
  600WAT     H1 2011   3.621   2.324   4.371  0.5118 -0.8327 -0.4052
  600WAT     H2 2012   3.689   2.371   4.244  0.9594  0.3205  0.2430
  601WAT      O 2013   4.962   1.899   0.783  0.0373 -0.1867 -0.0503
  601WAT     H1 2014   4.948   1.932   0.694  0.2253 -0.5787 -0.2287
  601WAT     H2 2015   4.988   1.808   0.770 -2.6780 -1.1199  0.5178
  602WAT      O 2016   0.181   3.594   2.350 -0.0332 -1.0185  0.0875
  602WAT     H1 2017   0.151   3.673   2.393  2.7665  0.7438 -0.9146
  602WAT     H2 2018   0.219   3.541   2.420  1.2011  0.1418  0.3211
  603WAT      O 2019   4.603   4.055   1.895 -0.0481 -0.0989 -0.5227
  603WAT     H1 2020   4.520   4.008   1.888 -0.2319  0.2511 -0.7073
  603WAT     H2 2021   4.619   4.090   1.808  0.3033 -0.1820 -0.4915
  604WAT      O 2022   2.926   4.898   1.430 -0.2621  0.2020  0.0827
  604WAT     H1 2023   2.858   4.879   1.494  1.5300 -0.5963  1.8575
  604WAT     H2 2024   3.006   4.907   1.482  1.2481 -0.2740 -2.0225
  605WAT      O 2025   0.411   2.443   3.547 -0.0903  0.7260 -0.0448
  605WAT     H1 2026   0.373   2.381   3.609 -0.8570  0.3330 -0.8772
  605WAT     H2 2027   0.350   2.442   3.473  1.7139 -0.2062 -1.6036
  606WAT      O 2028   2.606   2.995   4.748  0.4365 -0.2678 -0.6476
  606WAT     H1 2029   2.549   2.921   4.726 -2.5647  1.8157 -0.4501
  606WAT     H2 2030   2.546   3.069   4.755  2.5516  1.3710  3.8163
  607WAT      O 2031   4.953   2.112   4.516 -0.5167  0.4492  0.4680
  607WAT     H1 2032   4.989   2.032   4.477  0.3847  1.4317 -0.8019
  607WAT     H2 2033   4.871   2.084   4.557 -0.2329 -1.1124  0.0304
  608WAT      O 2034   3.074   4.159   1.368 -0.3507 -0.3407  0.1590
  608WAT     H1 2035   3.030   4.240   1.391 -1.2246 -0.2346 -1.7057
  608WAT     H2 2036   3.107   4.174   1.279  1.7369 -1.1322  0.7348
  609WAT      O 2037   3.002   1.568   4.049  0.9960 -0.0244 -0.8258
  609WAT     H1 2038   3.086   1.549   4.007  1.3880  1.1027 -0.5899
  609WAT     H2 2039   3.005   1.662   4.068  1.2870 -0.5773  2.6121
  610WAT      O 2040   4.071   3.758   0.353 -0.5753 -0.2550 -0.4292
  610WAT     H1 2041   4.076   3.807   0.270  2.3801 -2.4585 -1.7346
  610WAT     H2 2042   4.143   3.794   0.406  0.4447 -1.8110 -0.6847
  611WAT      O 2043   3.567   2.700   3.748  0.5098 -0.0944 -0.0498
  611WAT     H1 2044   3.548   2.716   3.841 -0.3492 -1.0293 -0.0497
  611WAT     H2 2045   3.661   2.714   3.741  1.2405 -3.1749  1.7107
  612WAT      O 2046   4.276   4.906   2.497  0.0965 -0.2327  0.3112
  612WAT     H1 2047   4.290   4.940   2.585  0.0591 -0.2564  0.3264
  612WAT     H2 2048   4.352   4.936   2.447 -0.5163  0.9162  0.0232
  613WAT      O 2049   4.774   1.580   2.704 -0.7715 -0.4925 -0.4338
  613WAT     H1 2050   4.839   1.531   2.653 -0.0603  0.5972 -0.6198
  613WAT     H2 2051   4.707   1.604   2.641 -0.3553  0.0576 -0.6806
  614WAT      O 2052   0.953   5.325   2.994 -0.0382 -0.7242  0.5690
  614WAT     H1 2053   0.898   5.272   2.936  1.0348 -0.3764 -0.8255
  614WAT     H2 2054   1.004   5.262   3.043 -0.1133 -1.0117  0.2830
  615WAT      O 2055   1.462   2.719   3.378  0.3572 -0.1694  0.3102
  615WAT     H1 2056   1.484   2.677   3.461 -1.6550 -2.3420 -0.1815
  615WAT     H2 2057   1.458   2.648   3.315 -0.2414  1.1636 -1.2216
  616WAT      O 2058   1.378   2.599   5.750  0.0105 -0.3399  0.3279
  616WAT     H1 2059   1.366   2.519   5.699  0.3732  0.2255 -0.6641
  616WAT     H2 2060   1.401   2.568   5.838 -0.1700 -1.3245  0.0334
  617WAT      O 2061   0.919   3.785   0.404 -0.1311 -0.4385 -0.0956
  617WAT     H1 2062   0.844   3.822   0.359  0.0536  0.9810  0.7032
  617WAT     H2 2063   0.977   3.756   0.334 -0.8969 -0.4405 -0.7317
  618WAT      O 2064   4.066   2.878   2.584  0.1698  0.1401 -0.2123
  618WAT     H1 2065   3.986   2.826   2.578  1.5445 -1.8695 -2.5717
  618WAT     H2 2066   4.129   2.822   2.629  1.3485  0.1200 -1.7933
  619WAT      O 2067   1.076   1.855   5.090 -0.0629  0.4620 -1.0061
  619WAT     H1 2068   1.107   1.908   5.016 -0.0140 -0.5606 -1.7367
  619WAT     H2 2069   1.130   1.776   5.087  0.5195  0.7596  0.6428
  620WAT      O 2070   0.742   3.419   3.085 -0.1996  0.4306  0.3257
  620WAT     H1 2071   0.752   3.342   3.140  0.5310  0.8603  0.8160
  620WAT     H2 2072   0.767   3.389   2.998 -3.1478 -0.7455 -0.2448
  621WAT      O 2073   2.974   1.581   1.849  0.0439  0.4312 -0.3389
  621WAT     H1 2074   2.961   1.489   1.874  0.9768  0.5569  0.6682
  621WAT     H2 2075   3.004   1.624   1.929  1.8867  1.1348 -1.3588
  622WAT      O 2076   0.323   2.510   0.701  0.2679 -0.5324 -0.1006
  622WAT     H1 2077   0.408   2.467   0.700  0.4207 -0.2534  0.4436
  622WAT     H2 2078   0.338   2.594   0.657  0.9506  0.7193  2.3694
  623WAT      O 2079   2.784   1.196   1.289 -0.0833 -0.4183  0.6824
  623WAT     H1 2080   2.708   1.188   1.347 -1.2421 -0.1620 -0.7270
  623WAT     H2 2081   2.810   1.288   1.297 -2.0384  0.4049 -1.2392
  624WAT      O 2082   0.908   1.957   3.854 -0.3164  0.9077  0.2874
  624WAT     H1 2083   0.909   1.973   3.759 -1.5316  1.2449  0.3276
  624WAT     H2 2084   0.845   2.019   3.889  0.3752  1.0221  1.3838
  625WAT      O 2085   4.875   3.137   1.357  0.7287  0.3832 -0.2022
  625WAT     H1 2086   4.806   3.137   1.422 -0.3032 -2.2066 -1.1789
  625WAT     H2 2087   4.922   3.220   1.371 -1.6183  1.5190  1.4445
  626WAT      O 2088   3.862   2.144   1.672  0.3489  0.5902 -0.0380
  626WAT     H1 2089   3.944   2.094   1.666  0.2151  0.3551  0.0954
  626WAT     H2 2090   3.795   2.085   1.637 -0.0116  0.2102  1.2542
  627WAT      O 2091   3.785   2.194   0.072  0.0749 -0.1585 -0.0489
  627WAT     H1 2092   3.757   2.249  -0.001  0.3776 -0.2758 -0.2544
  627WAT     H2 2093   3.879   2.213   0.082  0.0878 -0.3225  0.1517
  628WAT      O 2094   4.153   0.225   3.777  0.0470  0.5533  0.7644
  628WAT     H1 2095   4.241   0.199   3.748 -0.0578  1.1783 -0.1633
  628WAT     H2 2096   4.094   0.169   3.728 -0.0968  0.6488  0.8291
  629WAT      O 2097   2.191   4.467   1.537  0.4397  0.6773 -0.1657
  629WAT     H1 2098   2.151   4.499   1.617 -1.0323  0.6365 -0.8592
  629WAT     H2 2099   2.119   4.428   1.487  1.5662 -0.5597 -0.8991
  630WAT      O 2100   3.644   1.978   1.709  0.2962  0.5192 -0.0392
  630WAT     H1 2101   3.585   1.929   1.652  2.1128 -0.9234 -0.8031
  630WAT     H2 2102   3.667   1.917   1.779  1.0869  0.9382  0.0894
  631WAT      O 2103   2.019   1.824   3.382  0.4259  0.1512 -0.0193
  631WAT     H1 2104   2.007   1.884   3.457  0.8703  0.0760  0.1171
  631WAT     H2 2105   2.030   1.882   3.307  2.8801  0.3522  0.3894
  632WAT      O 2106   4.537   2.331   1.474 -0.3969  0.2257 -0.3962
  632WAT     H1 2107   4.619   2.317   1.521  0.2925  0.4962 -1.4865
  632WAT     H2 2108   4.525   2.426   1.476 -0.5219  0.2111 -0.5193
  633WAT      O 2109   1.812   3.601   1.109 -0.6528 -0.0138  0.1499
  633WAT     H1 2110   1.746   3.536   1.083 -1.2225  0.5903  0.0343
  633WAT     H2 2111   1.761   3.673   1.146 -0.2496  1.3602 -1.8102
  634WAT      O 2112   4.547   4.341   2.194 -0.1915  0.1246  0.4409
  634WAT     H1 2113   4.642   4.350   2.189 -0.3056  0.6469 -1.5655
  634WAT     H2 2114   4.516   4.430   2.213 -0.3711  0.5402 -1.5545
  635WAT      O 2115   4.579   2.352   1.906  0.5248 -0.3219 -0.2987
  635WAT     H1 2116   4.530   2.329   1.985  0.5711  0.6456  0.0281
  635WAT     H2 2117   4.516   2.402   1.853  0.3778 -1.2736 -1.0609
  636WAT      O 2118   4.429   3.201   2.334  0.0991  0.0911 -0.6637
  636WAT     H1 2119   4.462   3.234   2.417  1.5937 -0.7751 -0.8612
  636WAT     H2 2120   4.508   3.169   2.289 -1.0421 -2.3518 -1.0756
  637WAT      O 2121   4.934   3.229   1.931 -0.3769  0.4074  0.3835
  637WAT     H1 2122   4.917   3.225   1.836 -1.4173  0.7696  0.5437
  637WAT     H2 2123   5.011   3.286   1.938  0.6302 -0.8091 -0.3251
  638WAT      O 2124   4.079   0.691   2.339 -0.5276 -0.2934  0.2210
  638WAT     H1 2125   4.094   0.618   2.279  0.0846 -0.8396  1.0251
  638WAT     H2 2126   4.093   0.769   2.285  1.2945 -0.7745 -0.0633
  639WAT      O 2127   1.642   2.647   1.917 -0.3335  0.0821 -0.6914
  639WAT     H1 2128   1.664   2.595   1.994 -1.5648  0.1824 -0.2422
  639WAT     H2 2129   1.555   2.616   1.891 -0.3087  0.6582 -1.5134
  640WAT      O 2130   1.357   0.910   4.392  0.0603  0.2919 -0.0863
  640WAT     H1 2131   1.440   0.912   4.345  0.6998  0.0373  1.0004
  640WAT     H2 2132   1.351   0.995   4.435  0.2824 -0.0763  0.6962
  641WAT      O 2133   4.153   4.453   4.109  0.5962  0.2319  0.7408
  641WAT     H1 2134   4.102   4.522   4.151  0.4803  0.9107 -0.4740
  641WAT     H2 2135   4.088   4.387   4.084  0.5049  0.4157  0.4949
  642WAT      O 2136   0.037   5.216   1.920 -0.6246 -0.6797  0.3685
  642WAT     H1 2137   0.078   5.170   1.993  0.8264 -0.0502 -0.0115
  642WAT     H2 2138   0.054   5.159   1.844 -1.4730 -0.9710  0.3897
  643WAT      O 2139   0.844   2.008   2.117 -0.1645 -0.2137  0.3011
  643WAT     H1 2140   0.800   2.090   2.138 -0.1151 -0.2793  0.6628
  643WAT     H2 2141   0.934   2.034   2.094  0.0846 -0.2394  1.2129
  644WAT      O 2142   0.739   0.877   2.588  0.4782 -0.5407  0.1019
  644WAT     H1 2143   0.740   0.826   2.669 -2.3679  0.4431  0.8909
  644WAT     H2 2144   0.773   0.962   2.613 -0.1217 -0.3286  0.2115
  645WAT      O 2145   0.796   2.389   5.099  0.4268  0.2997  0.6776
  645WAT     H1 2146   0.757   2.455   5.042  2.5459  1.3423  0.3515
  645WAT     H2 2147   0.748   2.308   5.078  0.5012  0.8513 -1.9059
  646WAT      O 2148   1.807   3.074   3.840 -0.5891  0.1026 -0.2906
  646WAT     H1 2149   1.851   3.159   3.841  1.8567 -1.0262 -1.5493
  646WAT     H2 2150   1.715   3.095   3.825  0.0477  2.5053 -1.4333
  647WAT      O 2151   1.221   4.293   3.714  0.4635  0.3285  0.3387
  647WAT     H1 2152   1.183   4.218   3.668  1.6453  0.0469 -0.2224
  647WAT     H2 2153   1.300   4.257   3.755  0.4977  1.0472  0.9193
  648WAT      O 2154   3.614   4.073   3.056 -0.1939 -0.5187  0.0011
  648WAT     H1 2155   3.674   4.099   3.126 -0.1440 -0.0272 -0.2196
  648WAT     H2 2156   3.563   4.002   3.094 -0.7985  0.3563  0.8661
  649WAT      O 2157   3.770   2.881   3.021 -0.3306 -0.0630  0.0754
  649WAT     H1 2158   3.691   2.925   2.990 -0.1051  0.0877 -0.3034
  649WAT     H2 2159   3.768   2.795   2.977 -0.5366 -0.2538  0.4552
  650WAT      O 2160   1.360   3.293   2.679 -0.1718 -0.1942 -0.6022
  650WAT     H1 2161   1.454   3.273   2.677 -0.3366 -0.9810 -0.9892
  650WAT     H2 2162   1.351   3.361   2.746  0.3599 -1.8802  1.2970
  651WAT      O 2163   3.517   3.248   0.163 -0.3741  0.7565 -0.2330
  651WAT     H1 2164   3.564   3.321   0.203 -1.5539  0.4554  1.8137
  651WAT     H2 2165   3.437   3.287   0.127  0.1846  0.8464 -1.4434
  652WAT      O 2166   4.397   2.694   1.849  0.0186 -0.5939 -0.1566
  652WAT     H1 2167   4.370   2.716   1.939 -1.2652 -1.6236 -0.2656
  652WAT     H2 2168   4.354   2.611   1.830  1.4568 -1.1304 -1.2256
  653WAT      O 2169   2.048   2.827   1.009 -0.3650  0.0759 -0.2598
  653WAT     H1 2170   2.036   2.897   1.073  0.9688  1.5723 -1.5691
  653WAT     H2 2171   2.121   2.776   1.043  0.3234  0.8513 -0.5446
  654WAT      O 2172   0.264   2.772   4.767 -0.0271 -0.4978 -0.5386
  654WAT     H1 2173   0.214   2.737   4.693  2.8535 -1.0370 -2.3985
  654WAT     H2 2174   0.228   2.860   4.780 -1.5190 -0.8937 -1.6921
  655WAT      O 2175   4.173   3.067   2.142  0.1180  0.9142  0.6784
  655WAT     H1 2176   4.185   3.022   2.226  0.6163  0.5660  0.4290
  655WAT     H2 2177   4.147   2.998   2.081 -0.3903  1.1936  0.5768
  656WAT      O 2178   2.776   2.855   2.038 -0.2354  0.2015  0.3287
  656WAT     H1 2179   2.756   2.872   2.129  0.9867  0.0877  0.6419
  656WAT     H2 2180   2.773   2.760   2.029  0.3904  0.1670  0.4443
  657WAT      O 2181   1.620   4.897   4.269 -0.4352 -0.3079  0.2342
  657WAT     H1 2182   1.635   4.991   4.261  0.3683 -0.5293 -1.1817
  657WAT     H2 2183   1.698   4.865   4.316  0.9288 -0.6651 -2.1107
  658WAT      O 2184   3.809   1.693   4.966 -0.2757  0.6054 -0.7002
  658WAT     H1 2185   3.751   1.650   4.904 -0.6610 -0.5049  0.3798
  658WAT     H2 2186   3.885   1.718   4.915  0.4995 -2.4157 -1.2070
  659WAT      O 2187   1.992   2.394   3.237  0.1811 -0.0165 -0.0886
  659WAT     H1 2188   1.915   2.350   3.201  0.2319  0.4887 -0.8151
  659WAT     H2 2189   1.955   2.462   3.295  0.0872  0.0382 -0.2127
  660WAT      O 2190   4.634   2.512   1.248  0.2543  0.0554 -0.0425
  660WAT     H1 2191   4.695   2.445   1.281 -0.2144 -0.1859  0.3446
  660WAT     H2 2192   4.554   2.499   1.299  0.3104  1.2263  0.3614
  661WAT      O 2193   0.180   1.012   1.289 -0.8726 -0.5327 -0.3869
  661WAT     H1 2194   0.269   0.996   1.320 -0.5090 -0.0105 -1.1315
  661WAT     H2 2195   0.157   0.933   1.239 -0.9202 -0.7686  0.0057
  662WAT      O 2196   0.137   4.711   4.159 -0.1284  0.1353 -0.1035
  662WAT     H1 2197   0.047   4.689   4.137 -0.3198  0.0535  0.7354
  662WAT     H2 2198   0.146   4.688   4.251  0.6843  0.3541 -0.1162
  663WAT      O 2199   5.006   3.021   0.763  0.1202 -0.5040 -0.4564
  663WAT     H1 2200   4.992   3.031   0.669  0.6814 -0.8837 -0.5845
  663WAT     H2 2201   4.918   3.010   0.799 -0.1840  0.6360 -0.8063
  664WAT      O 2202   3.767   3.863   3.719  0.5007  0.3936 -0.3089
  664WAT     H1 2203   3.840   3.847   3.659  0.1491 -0.0963 -0.6075
  664WAT     H2 2204   3.746   3.956   3.706  2.6557  1.2571  1.5548
  665WAT      O 2205   3.394   1.836   2.867 -0.0033 -0.2480 -0.1961
  665WAT     H1 2206   3.377   1.746   2.839 -0.6573  0.2407 -1.4374
  665WAT     H2 2207   3.307   1.873   2.883  0.2929 -0.0548  1.0813
  666WAT      O 2208   4.724   1.372   1.952 -0.2806  0.1734  0.4618
  666WAT     H1 2209   4.701   1.327   1.871 -0.3161  0.0368  0.5473
  666WAT     H2 2210   4.742   1.462   1.925 -0.8736  0.2728  0.3821
  667WAT      O 2211   0.149   2.799   0.584  0.6651 -0.1251 -0.2534
  667WAT     H1 2212   0.186   2.809   0.672  0.9807  3.2006 -0.6561
  667WAT     H2 2213   0.203   2.854   0.528 -1.7453  0.8283 -1.8120
  668WAT      O 2214   0.693   1.992   4.739 -0.1753 -0.1066  0.0717
  668WAT     H1 2215   0.738   2.068   4.778 -1.9236  0.4495  1.1087
  668WAT     H2 2216   0.607   2.026   4.713 -0.5310 -1.4606 -0.6046
  669WAT      O 2217   2.127   1.277   0.465  0.1944  0.1851 -0.1035
  669WAT     H1 2218   2.037   1.276   0.432 -0.1893 -1.6401  0.8780
  669WAT     H2 2219   2.117   1.273   0.560  1.3114 -1.3242 -0.0244
  670WAT      O 2220   1.067   1.608   1.023 -0.0057 -0.0622 -0.1216
  670WAT     H1 2221   0.980   1.644   1.008  0.4974  0.6912 -1.5122
  670WAT     H2 2222   1.055   1.513   1.025 -0.5746 -0.1610 -3.0512
  671WAT      O 2223   0.116   1.553   1.998 -0.0695  0.0374 -0.2382
  671WAT     H1 2224   0.094   1.605   2.076 -0.3520  0.0897 -0.3526
  671WAT     H2 2225   0.053   1.482   1.998 -1.2177  1.0044 -1.3823
  672WAT      O 2226   4.554   1.984   2.017  0.1034  0.2646 -0.1029
  672WAT     H1 2227   4.527   2.074   2.037  0.1372 -0.1803  2.2021
  672WAT     H2 2228   4.472   1.938   1.998  0.0078  0.5828 -0.4740
  673WAT      O 2229   1.689   2.613   1.595  0.1698 -0.2840  0.1463
  673WAT     H1 2230   1.747   2.559   1.648 -0.4481 -0.7720  0.3381
  673WAT     H2 2231   1.626   2.648   1.658  0.8245  1.0451  0.1107
  674WAT      O 2232   4.316   2.267   1.337  0.2150 -0.0764  0.6803
  674WAT     H1 2233   4.391   2.291   1.392 -0.2831 -1.7796  2.1625
  674WAT     H2 2234   4.299   2.175   1.357 -1.9482  0.1160 -0.0289
  675WAT      O 2235   1.973   3.736   0.926 -0.4966  0.3147 -0.1896
  675WAT     H1 2236   1.938   3.823   0.944  0.1654  0.6010 -0.2750
  675WAT     H2 2237   1.937   3.681   0.995 -1.6635  0.4543 -0.6578
  676WAT      O 2238   3.423   4.316   4.014  0.5665 -0.3862 -0.5503
  676WAT     H1 2239   3.491   4.315   4.081 -0.1306 -0.4623  0.1830
  676WAT     H2 2240   3.408   4.409   3.997 -1.2261 -0.1918  1.5341
  677WAT      O 2241   0.151   2.677   5.658 -0.3949  0.0191  0.9002
  677WAT     H1 2242   0.144   2.582   5.665  1.3650 -0.1583  0.6611
  677WAT     H2 2243   0.211   2.692   5.585 -0.2623  1.3037  1.2467
  678WAT      O 2244   3.679   1.221   3.176 -0.3081 -0.0691  0.0849
  678WAT     H1 2245   3.769   1.217   3.209 -0.1392 -0.5372 -0.4053
  678WAT     H2 2246   3.664   1.315   3.160  0.6970 -0.1068 -1.3758
  679WAT      O 2247   1.523   3.969   3.466  0.2404 -0.0355 -0.6833
  679WAT     H1 2248   1.491   4.048   3.422 -1.1493 -1.5150 -2.4939
  679WAT     H2 2249   1.618   3.983   3.474  0.2701  1.0921 -2.5192
  680WAT      O 2250   4.635   2.643   2.258  0.5134  0.0735 -0.0790
  680WAT     H1 2251   4.592   2.726   2.277  2.0857  0.9598 -0.2693
  680WAT     H2 2252   4.720   2.667   2.222  0.5616 -1.6153 -1.2394
  681WAT      O 2253   2.129   2.230   4.784  0.8267 -0.3506 -0.0605
  681WAT     H1 2254   2.080   2.288   4.726  1.5000  0.0641 -0.2226
  681WAT     H2 2255   2.205   2.282   4.812  0.9179 -0.8086  0.5808
  682WAT      O 2256   1.406   1.910   3.734 -0.5612  0.3240 -0.1200
  682WAT     H1 2257   1.341   1.912   3.804  2.1731  1.0093  2.5800
  682WAT     H2 2258   1.434   2.001   3.725  0.1493  0.0272 -1.1129
  683WAT      O 2259   0.859   2.970   3.105 -0.6530  0.4258 -0.1725
  683WAT     H1 2260   0.945   2.937   3.077 -1.0070 -2.4756  1.6668
  683WAT     H2 2261   0.819   3.004   3.025  1.3301 -0.2508 -1.5290
  684WAT      O 2262   0.044   3.115   2.540  0.4247 -0.0199  0.1092
  684WAT     H1 2263  -0.006   3.033   2.546  0.3742  0.0652  1.0337
  684WAT     H2 2264  -0.012   3.175   2.491  0.4199 -0.5005 -0.4887
  685WAT      O 2265   0.955   3.316   5.729  0.5081 -0.1782 -0.3532
  685WAT     H1 2266   1.003   3.328   5.647  1.5639 -0.4302  0.2012
  685WAT     H2 2267   0.895   3.244   5.711 -0.3001  0.7119 -1.3288
  686WAT      O 2268   0.233   1.826   3.941 -0.3471 -0.2638  0.1566
  686WAT     H1 2269   0.288   1.813   4.018 -0.5497 -1.3195  0.1438
  686WAT     H2 2270   0.167   1.757   3.947 -0.5443 -0.1808 -0.8042
  687WAT      O 2271   4.509   2.259   2.165  0.6213 -0.1564  0.0419
  687WAT     H1 2272   4.418   2.232   2.169  0.4671  0.1250 -1.0646
  687WAT     H2 2273   4.529   2.290   2.253 -1.1398  2.2382 -0.2941
  688WAT      O 2274   1.333   3.897   2.276 -0.6885 -0.0174  0.0334
  688WAT     H1 2275   1.299   3.823   2.326 -1.4808  0.2359 -0.1201
  688WAT     H2 2276   1.421   3.912   2.312 -0.7604 -0.6341  0.4822
  689WAT      O 2277   4.357   1.971   3.415  0.0236  0.3445 -0.3674
  689WAT     H1 2278   4.274   2.017   3.402  0.9003  2.1974  0.2715
  689WAT     H2 2279   4.385   1.997   3.502  0.6478 -1.3594 -0.0074
  690WAT      O 2280   0.530   2.137   1.182  0.1123 -0.2348 -0.3828
  690WAT     H1 2281   0.561   2.101   1.265  1.8002 -0.3809 -1.0427
  690WAT     H2 2282   0.488   2.220   1.206  0.1932 -0.4752  0.6488
  691WAT      O 2283   1.665   4.315   0.789  0.0899  0.3637  0.1445
  691WAT     H1 2284   1.674   4.410   0.799  0.3204  0.1475  2.6464
  691WAT     H2 2285   1.748   4.280   0.822 -1.1988 -0.7798  2.4238
  692WAT      O 2286   4.738   3.124   3.281 -0.4670  0.2809  0.0905
  692WAT     H1 2287   4.761   3.087   3.366 -1.2283 -0.4308 -0.0011
  692WAT     H2 2288   4.694   3.053   3.235  1.5634  0.0372 -1.6317
  693WAT      O 2289   3.603   4.714   3.322  0.8389 -0.4463  0.0065
  693WAT     H1 2290   3.513   4.686   3.335  0.4319  1.3266  1.4556
  693WAT     H2 2291   3.600   4.773   3.247  1.0284 -1.2581 -0.6591
  694WAT      O 2292   0.867   2.682   0.255  0.1844 -0.1543 -0.1049
  694WAT     H1 2293   0.925   2.620   0.299  0.7235  0.9853  0.8239
  694WAT     H2 2294   0.779   2.650   0.276  0.4504 -0.3167  0.8158
  695WAT      O 2295   4.389   4.815   2.988  0.3791  0.3911 -0.5533
  695WAT     H1 2296   4.348   4.779   3.067  1.1379  0.2206 -0.2289
  695WAT     H2 2297   4.319   4.814   2.922 -0.7470  2.0474  0.5431
  696WAT      O 2298   2.067   4.174   1.186 -0.0769  0.3309 -0.3524
  696WAT     H1 2299   2.092   4.262   1.215 -0.4750  0.1328  0.6214
  696WAT     H2 2300   1.976   4.182   1.159  0.0575  0.3418 -0.8023
  697WAT      O 2301   4.379   2.347   5.158  0.6341 -0.0292 -0.4893
  697WAT     H1 2302   4.314   2.333   5.089  1.6238 -1.1111 -1.2661
  697WAT     H2 2303   4.447   2.401   5.116  0.4806  0.6685  0.1511
  698WAT      O 2304   1.679   3.252   5.652 -0.3868 -0.2579 -0.0640
  698WAT     H1 2305   1.760   3.283   5.612  0.0023  1.3926  1.8374
  698WAT     H2 2306   1.650   3.180   5.595  1.4444  0.2653 -1.7768
  699WAT      O 2307   3.172   2.631   3.538 -0.2720 -0.4147 -0.7361
  699WAT     H1 2308   3.151   2.562   3.474  0.5440 -0.1294 -1.3259
  699WAT     H2 2309   3.208   2.702   3.485 -0.2504  0.1066 -0.0278
  700WAT      O 2310   2.455   1.792   4.668 -0.4537 -0.2578 -0.0780
  700WAT     H1 2311   2.526   1.819   4.610 -0.4080 -0.9736 -0.3734
  700WAT     H2 2312   2.412   1.721   4.621 -3.2244  2.0127 -1.2651
  701WAT      O 2313   4.149   2.514   5.780 -0.5280  0.1319  0.6703
  701WAT     H1 2314   4.228   2.472   5.813 -0.0340 -1.1832 -1.9544
  701WAT     H2 2315   4.162   2.607   5.800  1.9485  0.0310 -0.1218
  702WAT      O 2316   0.144   2.194   3.435 -0.2642  0.4202  0.3465
  702WAT     H1 2317   0.179   2.279   3.408  1.6281 -0.1475  0.8989
  702WAT     H2 2318   0.173   2.183   3.525 -2.6131  0.2461  1.1659
  703WAT      O 2319   2.318   1.236   3.832  0.4698 -0.1037  0.3310
  703WAT     H1 2320   2.333   1.211   3.923  0.2174 -2.4811 -0.2229
  703WAT     H2 2321   2.258   1.311   3.838 -0.9883 -1.3318  2.1063
  704WAT      O 2322   2.198   2.332   5.652  0.3316  0.2022  0.6105
  704WAT     H1 2323   2.278   2.384   5.658  1.8189 -1.9826  0.9183
  704WAT     H2 2324   2.171   2.341   5.560  0.2659  1.8535  0.7679
  705WAT      O 2325   1.155   1.515   1.905  0.4021 -0.2508  0.1463
  705WAT     H1 2326   1.189   1.596   1.944  2.3355 -1.2999  0.7735
  705WAT     H2 2327   1.156   1.531   1.811  1.3771  0.2464  0.2314
  706WAT      O 2328   0.031   2.247   1.687  0.3903  0.0386 -0.0963
  706WAT     H1 2329   0.116   2.265   1.645  0.0399  0.4440 -0.6591
  706WAT     H2 2330   0.025   2.313   1.756 -0.4302  1.5035 -1.4913
  707WAT      O 2331   4.066   2.617   0.262  0.5538  0.1698  0.0997
  707WAT     H1 2332   4.042   2.649   0.349  1.2536  1.3114 -0.1009
  707WAT     H2 2333   4.005   2.661   0.203  0.1977 -0.4608 -0.0017
  708WAT      O 2334   2.971   2.568   0.718 -0.3500  0.2031 -0.3564
  708WAT     H1 2335   3.048   2.567   0.775 -0.0914  0.4741 -0.6890
  708WAT     H2 2336   2.899   2.595   0.775  0.3786  3.1922 -0.6787
  709WAT      O 2337   3.107   2.551   5.357 -0.0800 -0.2538  0.4094
  709WAT     H1 2338   3.068   2.540   5.443  0.4709 -0.9748  0.5840
  709WAT     H2 2339   3.052   2.499   5.299  0.0358 -0.4559  0.4790
  710WAT      O 2340   4.766   0.268   3.110  0.3783 -0.2080  0.3081
  710WAT     H1 2341   4.793   0.321   3.186 -2.2765  1.0635  0.4963
  710WAT     H2 2342   4.811   0.308   3.036 -0.2561  1.2954  0.6907
  711WAT      O 2343   4.613   2.853   1.507 -0.6319 -0.2894  0.0997
  711WAT     H1 2344   4.615   2.920   1.439  0.3750 -0.3091  0.0956
  711WAT     H2 2345   4.703   2.849   1.539 -0.2305 -2.9098 -1.1333
  712WAT      O 2346   2.241   3.069   5.593 -0.3445  0.2560 -0.5551
  712WAT     H1 2347   2.315   3.036   5.645  1.6292  0.5706 -2.9545
  712WAT     H2 2348   2.242   3.014   5.514 -3.2010 -0.2049 -0.3615
  713WAT      O 2349   4.432   5.035   2.690  0.8715  0.0671  0.1007
  713WAT     H1 2350   4.457   5.040   2.782  1.7593  0.1226 -0.1333
  713WAT     H2 2351   4.514   5.015   2.644 -0.0172 -2.6114 -0.4377
  714WAT      O 2352   2.181   1.635   2.691  0.1583 -0.4720  0.3872
  714WAT     H1 2353   2.135   1.596   2.765 -1.6908  1.5251  0.3776
  714WAT     H2 2354   2.224   1.713   2.727 -1.1453  0.7880 -0.6449
  715WAT      O 2355   3.222   3.102   0.400  0.0838 -0.2975 -0.0762
  715WAT     H1 2356   3.131   3.085   0.374 -1.8892  2.3810  4.0887
  715WAT     H2 2357   3.256   3.159   0.331 -1.5361 -0.9534 -1.4920
  716WAT      O 2358   0.698   1.762   0.183  0.5631  0.1398  0.5490
  716WAT     H1 2359   0.641   1.691   0.213  0.4580 -1.1107 -2.2398
  716WAT     H2 2360   0.638   1.830   0.153  0.5301 -0.2638 -0.3521
  717WAT      O 2361   1.475   3.515   0.858 -0.6237 -0.7283 -0.4930
  717WAT     H1 2362   1.435   3.463   0.787 -1.3332 -0.0103 -0.6357
  717WAT     H2 2363   1.521   3.586   0.813 -2.0332  0.4015 -0.2310
  718WAT      O 2364   4.899   4.379   2.413  0.9395 -0.0770  0.0632
  718WAT     H1 2365   4.838   4.310   2.438 -0.8100  0.6945 -1.8347
  718WAT     H2 2366   4.876   4.401   2.323  2.3931  1.9990  0.1211
  719WAT      O 2367   4.203   3.347   2.660 -0.1657 -0.1028  0.0731
  719WAT     H1 2368   4.149   3.356   2.581 -1.5168 -0.0635  0.9600
  719WAT     H2 2369   4.170   3.269   2.703  0.3554  0.0355  0.7509
  720WAT      O 2370   2.249   3.840   1.451 -0.0341 -0.0347 -0.3313
  720WAT     H1 2371   2.190   3.857   1.377  0.0086  0.5824 -0.2259
  720WAT     H2 2372   2.235   3.914   1.510 -0.7121 -0.9457  0.7048
  721WAT      O 2373   3.461   1.598   2.410  0.4366 -0.0157  0.0671
  721WAT     H1 2374   3.439   1.592   2.317 -0.1709 -1.1091  0.2662
  721WAT     H2 2375   3.426   1.518   2.449  0.2578  0.6353  1.3273
  722WAT      O 2376   3.422   3.639   0.309  0.1484  0.9260  0.1078
  722WAT     H1 2377   3.444   3.732   0.298  0.7106  0.6299 -1.5352
  722WAT     H2 2378   3.337   3.629   0.266 -0.0297  0.7254  0.5018
  723WAT      O 2379   0.464   1.351   5.136 -0.0024  0.7078  0.1050
  723WAT     H1 2380   0.549   1.396   5.144 -1.1850  3.2897 -0.6197
  723WAT     H2 2381   0.456   1.332   5.042  0.6141 -1.4417  0.4411
  724WAT      O 2382   3.654   3.879   1.361  0.2574  0.5570  0.1436
  724WAT     H1 2383   3.573   3.866   1.312 -0.2176  2.0367  0.4804
  724WAT     H2 2384   3.638   3.839   1.446  0.2970 -0.1181 -0.1601
  725WAT      O 2385   1.012   3.185   1.774 -0.0582 -0.2556  1.3495
  725WAT     H1 2386   0.949   3.246   1.737  1.6208  1.0180  0.4375
  725WAT     H2 2387   1.076   3.241   1.819  0.7584 -1.4314  1.7115
  726WAT      O 2388   4.657   3.494   4.215 -0.3683  0.0969  0.2471
  726WAT     H1 2389   4.581   3.491   4.157 -0.2309 -0.4188  0.0800
  726WAT     H2 2390   4.637   3.431   4.284  0.4287 -0.9970 -0.4771
  727WAT      O 2391   2.937   2.367   4.564  0.1843 -0.5420  0.0641
  727WAT     H1 2392   2.979   2.435   4.511 -0.7928  0.6323  0.7308
  727WAT     H2 2393   3.009   2.326   4.612  0.7208  0.7163  0.3997
  728WAT      O 2394   0.694   3.105   3.498  0.2607  0.1594  0.3217
  728WAT     H1 2395   0.701   3.104   3.594  2.0545 -0.5942  0.2307
  728WAT     H2 2396   0.623   3.043   3.479  0.2413 -0.0912  1.1440
  729WAT      O 2397   4.341   3.364   0.026 -0.6330  0.4454 -0.1842
  729WAT     H1 2398   4.428   3.342  -0.007 -1.2227 -1.3225 -0.6758
  729WAT     H2 2399   4.328   3.455  -0.000  0.7663  0.5098 -0.7450
  730WAT      O 2400   3.769   4.966   2.564  0.2772  0.3058  0.0832
  730WAT     H1 2401   3.780   5.061   2.559  0.4084  0.2223 -2.0312
  730WAT     H2 2402   3.844   4.930   2.518  1.1098 -0.9390  2.2421
  731WAT      O 2403   0.039   3.475   1.173  0.4902 -0.0761  0.3510
  731WAT     H1 2404   0.043   3.387   1.135  0.7019  0.0459  0.0813
  731WAT     H2 2405   0.072   3.532   1.103  0.9656  0.1438  0.7496
  732WAT      O 2406   2.523   3.503   2.204  0.5364 -0.3726 -0.2838
  732WAT     H1 2407   2.572   3.529   2.126  0.5931  0.8452  0.1317
  732WAT     H2 2408   2.439   3.547   2.195 -0.0238 -1.4324 -0.3734
  733WAT      O 2409   3.636   4.081   1.079  0.1765 -0.4674 -0.2543
  733WAT     H1 2410   3.576   4.039   1.017 -0.7853 -1.4856  1.2770
  733WAT     H2 2411   3.724   4.062   1.045 -0.3294 -1.0237 -1.2764
  734WAT      O 2412   1.851   1.490   5.310  0.0635  0.0167 -0.2125
  734WAT     H1 2413   1.764   1.492   5.271  0.6107  2.4118 -1.5421
  734WAT     H2 2414   1.836   1.468   5.402 -1.7605 -1.0058 -0.7065
  735WAT      O 2415   2.879   5.604   2.162 -0.0384  0.3362  1.1995
  735WAT     H1 2416   2.879   5.683   2.107 -0.8068  0.1579  0.9368
  735WAT     H2 2417   2.957   5.614   2.218  1.0935  0.2331 -0.3100
  736WAT      O 2418   4.276   3.544   5.399  0.0169 -0.2871  0.2423
  736WAT     H1 2419   4.243   3.626   5.436 -1.1870  0.0004 -1.3219
  736WAT     H2 2420   4.224   3.476   5.442  0.0520 -0.1265  0.5412
  737WAT      O 2421   3.434   1.827   5.496  0.5398 -0.8962  0.1275
  737WAT     H1 2422   3.349   1.800   5.531  0.6472 -0.4615  0.7385
  737WAT     H2 2423   3.496   1.814   5.568  0.7601  0.0205  0.1195
  738WAT      O 2424   2.479   2.382   5.611 -0.4578 -0.0237 -0.1052
  738WAT     H1 2425   2.505   2.381   5.519 -0.9942 -0.1567 -0.2602
  738WAT     H2 2426   2.549   2.430   5.655 -0.0448 -0.2223 -0.5341
  739WAT      O 2427   4.805   1.743   5.766 -0.5446  0.4161  0.3598
  739WAT     H1 2428   4.805   1.773   5.675 -1.0631 -1.3464 -0.2638
  739WAT     H2 2429   4.725   1.691   5.774  1.3978 -2.8113  0.5924
  740WAT      O 2430   1.500   3.819   2.867 -0.2670 -0.0099 -0.3276
  740WAT     H1 2431   1.583   3.777   2.845 -0.4937 -0.0595 -1.1561
  740WAT     H2 2432   1.511   3.909   2.839 -1.0860 -0.4211 -2.1417
  741WAT      O 2433   3.693   3.040   1.600  0.0493 -0.6467 -0.2223
  741WAT     H1 2434   3.627   2.984   1.641 -1.3930  1.3604  0.3202
  741WAT     H2 2435   3.648   3.079   1.525 -0.1653  2.4008  1.3621
  742WAT      O 2436   3.477   1.052   3.022  0.2115 -0.0787 -0.3335
  742WAT     H1 2437   3.536   1.078   3.093 -2.0844  3.1221  0.6486
  742WAT     H2 2438   3.420   0.986   3.061  0.1024  0.3517  0.2433
  743WAT      O 2439   1.419   1.847   1.691 -0.3517  0.4493  0.0481
  743WAT     H1 2440   1.347   1.783   1.692  0.6493 -0.7066 -0.0517
  743WAT     H2 2441   1.404   1.899   1.770  0.3263 -1.6870  1.7062
  744WAT      O 2442   0.333   0.702   1.022  0.4604 -0.3849 -0.4457
  744WAT     H1 2443   0.362   0.629   1.077  0.9613 -0.4245 -0.7596
  744WAT     H2 2444   0.262   0.743   1.073  0.8391 -0.4901  0.1861
  745WAT      O 2445   4.494   2.859   0.356 -0.3096  0.0622 -0.0362
  745WAT     H1 2446   4.513   2.817   0.439 -0.6717  2.5949  1.4428
  745WAT     H2 2447   4.426   2.805   0.317 -1.8382  0.0441  2.4437
  746WAT      O 2448   4.766   3.720   5.543 -0.0038 -0.4562  0.3421
  746WAT     H1 2449   4.716   3.641   5.565 -0.6956 -0.3486 -0.7604
  746WAT     H2 2450   4.711   3.792   5.574  0.5244 -0.3834  1.1444
  747WAT      O 2451   4.653   4.351   3.928 -0.0101 -1.1488 -0.8514
  747WAT     H1 2452   4.577   4.345   3.987  3.0177  1.2964  3.9187
  747WAT     H2 2453   4.720   4.298   3.970  2.1455  0.1041 -2.4962
  748WAT      O 2454   1.109   1.345   2.129 -0.1563 -0.3721 -0.1850
  748WAT     H1 2455   1.024   1.313   2.099 -0.2902  0.2093 -0.4598
  748WAT     H2 2456   1.124   1.424   2.077  0.9705 -0.9482 -0.7766
  749WAT      O 2457   4.601   2.410   2.418  0.6843  0.0244  0.2676
  749WAT     H1 2458   4.517   2.411   2.464  0.3665  1.5126 -0.2851
  749WAT     H2 2459   4.606   2.495   2.375  1.9476 -0.4975 -0.6897
  750WAT      O 2460   3.568   2.551   1.846 -0.3996 -0.2691 -0.1711
  750WAT     H1 2461   3.497   2.486   1.848 -1.1265  0.5249  0.5340
  750WAT     H2 2462   3.619   2.528   1.768 -0.8273 -1.4859 -0.1142
  751WAT      O 2463   2.809   3.585   1.518 -0.4122 -0.2439  0.0946
  751WAT     H1 2464   2.754   3.586   1.440  1.6283 -0.1589 -1.4158
  751WAT     H2 2465   2.809   3.676   1.549  0.3240  0.1581 -1.0117
  752WAT      O 2466   2.650   1.948   0.648  0.3835 -0.2060  0.3291
  752WAT     H1 2467   2.717   1.995   0.698 -0.4344  1.9983 -0.5256
  752WAT     H2 2468   2.567   1.974   0.688 -0.0770 -1.8947  0.5605
  753WAT      O 2469   1.041   1.622   1.469  0.4227 -0.0226  0.2281
  753WAT     H1 2470   1.061   1.530   1.488 -1.4114 -0.5732 -0.2646
  753WAT     H2 2471   0.991   1.619   1.387 -0.8839  1.2529  0.9201
  754WAT      O 2472   3.369   1.568   2.796  0.6528 -0.9418 -0.1816
  754WAT     H1 2473   3.329   1.506   2.857 -1.0327 -0.5148 -0.8139
  754WAT     H2 2474   3.443   1.520   2.759  1.4994 -1.3458  1.8676
  755WAT      O 2475   2.766   1.760   4.287 -0.1533  0.5802 -0.3658
  755WAT     H1 2476   2.836   1.790   4.229  0.2340 -1.1300 -0.8502
  755WAT     H2 2477   2.691   1.749   4.230  0.1845 -0.9551 -0.5619
  756WAT      O 2478   4.201   2.118   3.776  0.3420  0.1522  0.8549
  756WAT     H1 2479   4.113   2.083   3.764  0.4993  0.2667 -0.8536
  756WAT     H2 2480   4.197   2.206   3.738  1.4703 -0.2651 -0.2887
  757WAT      O 2481   4.127   5.611   2.521  0.4962 -0.4436  0.3476
  757WAT     H1 2482   4.044   5.644   2.554  0.8753  1.6196 -0.5950
  757WAT     H2 2483   4.111   5.591   2.429  0.9667 -0.2716  0.2234
  758WAT      O 2484   1.375   1.338   5.681  0.5803 -0.1096 -0.2677
  758WAT     H1 2485   1.429   1.284   5.739 -0.2349 -1.5819 -0.8283
  758WAT     H2 2486   1.290   1.340   5.725  0.1068 -0.8020 -1.1254
  759WAT      O 2487   2.243   1.879   2.187 -0.0279 -0.2626  0.3468
  759WAT     H1 2488   2.270   1.837   2.106  1.3337 -3.3569  2.2500
  759WAT     H2 2489   2.147   1.873   2.187 -0.1681  1.0726 -1.5666
  760WAT      O 2490   4.316   2.251   0.515 -0.4426  0.2098 -0.3748
  760WAT     H1 2491   4.402   2.262   0.474  0.3089 -0.7657  0.8363
  760WAT     H2 2492   4.282   2.340   0.524  0.3589  0.5982 -1.0603
  761WAT      O 2493   3.345   3.757   5.728 -0.4166  0.8154  0.1035
  761WAT     H1 2494   3.303   3.832   5.768 -0.1971  1.8077 -1.4424
  761WAT     H2 2495   3.332   3.769   5.634  0.9710 -0.2685 -0.2637
  762WAT      O 2496   1.833   4.598   1.581  0.4457  0.0549  0.4675
  762WAT     H1 2497   1.927   4.584   1.597  0.7503  0.9090 -0.4998
  762WAT     H2 2498   1.817   4.556   1.496 -0.3228 -1.0943  1.1471
  763WAT      O 2499   4.203   2.999   1.414  0.0780  0.0478  0.3715
  763WAT     H1 2500   4.189   2.905   1.402  0.8505 -0.0655  0.3101
  763WAT     H2 2501   4.263   3.024   1.344 -0.4657  0.6872  0.1132
  764WAT      O 2502   4.679   3.168   0.509 -0.3105  0.4926  0.6947
  764WAT     H1 2503   4.599   3.161   0.457 -0.5778 -0.5294  1.2183
  764WAT     H2 2504   4.653   3.139   0.597 -0.0051  2.6833  1.5845
  765WAT      O 2505   4.578   3.544   5.644 -0.5768  0.3551  0.1978
  765WAT     H1 2506   4.590   3.468   5.701 -1.4888  0.9466  1.2094
  765WAT     H2 2507   4.556   3.507   5.559  0.1712 -0.5302  0.3721
  766WAT      O 2508   1.243   5.633   1.734  0.3826  0.4313 -0.5191
  766WAT     H1 2509   1.235   5.723   1.702 -1.0913  0.2979 -0.6068
  766WAT     H2 2510   1.282   5.585   1.662 -1.3220  0.4806 -1.5357
  767WAT      O 2511   3.973   3.477   5.803 -0.9484 -0.4412  0.3480
  767WAT     H1 2512   4.002   3.498   5.892  0.5517  1.9041 -0.5887
  767WAT     H2 2513   4.001   3.387   5.789  0.1775 -0.3449  1.7444
  768WAT      O 2514   4.348   3.046   5.769  0.0247  0.1629  0.3225
  768WAT     H1 2515   4.338   3.134   5.732 -0.2351 -0.3188 -0.8123
  768WAT     H2 2516   4.441   3.026   5.757 -0.2333 -0.3726 -1.0509
  769WAT      O 2517   4.536   1.935   1.496  0.3642  0.0434 -0.0691
  769WAT     H1 2518   4.589   1.956   1.419 -0.8914 -0.3767 -1.0794
  769WAT     H2 2519   4.564   1.998   1.562 -0.0628  1.8958 -1.5503
  770WAT      O 2520   3.864   1.469   1.220 -0.2376  0.4098  0.1708
  770WAT     H1 2521   3.814   1.459   1.139 -0.0175 -0.0184  0.0861
  770WAT     H2 2522   3.949   1.428   1.201 -0.8560 -1.4530  1.2318
  771WAT      O 2523   3.682   2.390   5.748  0.1868 -0.0825 -0.6654
  771WAT     H1 2524   3.757   2.449   5.733 -0.0703  0.1805 -0.9245
  771WAT     H2 2525   3.629   2.436   5.814  0.5654 -0.5560 -0.0171
  772WAT      O 2526   0.533   1.597   0.977  0.1291  0.4287  0.0058
  772WAT     H1 2527   0.493   1.633   1.056 -0.5720  0.4405 -0.3500
  772WAT     H2 2528   0.519   1.502   0.985  1.1848  0.3012  0.5072
  773WAT      O 2529   0.800   4.645   1.381 -0.5075  0.5923 -0.5641
  773WAT     H1 2530   0.805   4.730   1.425  1.4222  0.8802 -1.2348
  773WAT     H2 2531   0.854   4.656   1.303 -0.4556 -1.1669 -0.8096
  774WAT      O 2532   3.293   2.744   1.762 -0.3841  0.1584 -0.1078
  774WAT     H1 2533   3.303   2.732   1.667 -2.4007 -0.3735 -0.2984
  774WAT     H2 2534   3.225   2.682   1.787 -1.9745  2.2773  1.1538
  775WAT      O 2535   3.833   0.544   2.952 -0.0938  0.1554  0.0940
  775WAT     H1 2536   3.845   0.524   2.859 -1.1669 -1.4424  0.2657
  775WAT     H2 2537   3.816   0.459   2.993 -0.7987  0.9679  1.5628
  776WAT      O 2538   0.253   2.604   5.363 -0.1392  0.3637 -0.2808
  776WAT     H1 2539   0.339   2.638   5.388 -0.0902 -0.2072  0.3383
  776WAT     H2 2540   0.254   2.605   5.267  0.2412  1.1308 -0.2751
  777WAT      O 2541   3.635   1.393   1.379  0.1958  0.0211  0.2094
  777WAT     H1 2542   3.564   1.419   1.320 -0.3241 -0.2807  0.6959
  777WAT     H2 2543   3.710   1.445   1.350 -0.3723  0.7799  0.0606
  778WAT      O 2544   3.872   1.858   0.390  0.0912  0.4371 -0.4416
  778WAT     H1 2545   3.896   1.867   0.298 -0.9762  0.3634 -0.7431
  778WAT     H2 2546   3.955   1.847   0.436  0.6208  0.2900 -1.4146
  779WAT      O 2547   2.343   1.421   1.158  0.1774 -0.6136 -0.7014
  779WAT     H1 2548   2.318   1.435   1.067 -0.8420  0.3123 -0.2935
  779WAT     H2 2549   2.265   1.445   1.209  1.5421  1.4169  0.5733
  780WAT      O 2550   4.455   2.620   1.476  0.1342 -0.4689 -0.2749
  780WAT     H1 2551   4.514   2.694   1.492  0.1168 -0.7154  1.0876
  780WAT     H2 2552   4.411   2.606   1.560 -1.0113 -1.0419 -0.9409
  781WAT      O 2553  -0.011   3.007   5.374 -0.5155  0.3820 -0.0751
  781WAT     H1 2554   0.053   3.008   5.445 -1.0811 -0.1414  0.4588
  781WAT     H2 2555   0.041   3.004   5.295  0.1341  1.3085  0.3025
  782WAT      O 2556   1.775   2.937   1.043  0.0015  0.4495  0.0876
  782WAT     H1 2557   1.833   2.959   1.116 -2.6395 -0.1148  2.5367
  782WAT     H2 2558   1.816   2.861   1.002  2.2028  1.5402  0.0879
  783WAT      O 2559   2.593   2.900   2.790  0.3472  0.2675  0.0108
  783WAT     H1 2560   2.643   2.890   2.872 -1.5607 -0.0752  1.1961
  783WAT     H2 2561   2.559   2.990   2.794  0.5251  0.3627 -0.5806
  784WAT      O 2562   3.435   4.392   4.313  0.0562  0.0597  0.3781
  784WAT     H1 2563   3.439   4.406   4.408 -0.9946  2.1636  0.1729
  784WAT     H2 2564   3.411   4.478   4.277 -1.6898 -1.1561 -1.6072
  785WAT      O 2565   4.693   3.064   5.502  0.2566 -0.8168  0.2819
  785WAT     H1 2566   4.669   3.031   5.415  0.5381  0.4838 -0.3247
  785WAT     H2 2567   4.788   3.069   5.500  0.2359 -0.3121  0.4749
  786WAT      O 2568   4.872   3.802   4.997 -0.1512  0.1251  0.3722
  786WAT     H1 2569   4.918   3.728   4.959 -0.8850  0.2309 -0.7549
  786WAT     H2 2570   4.864   3.780   5.090 -0.0630 -1.0525  0.1174
  787WAT      O 2571   4.029   2.458   1.400  0.2883 -0.5880  0.0440
  787WAT     H1 2572   3.941   2.489   1.422 -0.5837 -1.2693 -2.2378
  787WAT     H2 2573   4.083   2.537   1.400 -0.3838 -0.1050  1.0977
  788WAT      O 2574   4.660   4.197   2.620 -0.0189 -0.3204 -0.2645
  788WAT     H1 2575   4.665   4.280   2.668  0.7499 -0.2373 -0.4719
  788WAT     H2 2576   4.579   4.204   2.569 -0.0470  0.2381 -0.1533
  789WAT      O 2577   0.260   1.793   1.544  0.0299  0.7408 -0.4834
  789WAT     H1 2578   0.191   1.766   1.485 -1.6241  2.3601  0.5870
  789WAT     H2 2579   0.256   1.731   1.617 -0.6136  1.0640 -0.2325
  790WAT      O 2580   4.765   0.971   1.783 -0.1134 -0.0493 -0.7334
  790WAT     H1 2581   4.844   0.980   1.730 -1.2617  1.3394 -2.2977
  790WAT     H2 2582   4.709   1.044   1.756 -2.0124 -1.0798  0.2064
  791WAT      O 2583   3.280   2.664   4.022 -0.3774  0.7336 -0.3149
  791WAT     H1 2584   3.289   2.681   3.928  0.6539 -1.4871 -0.6834
  791WAT     H2 2585   3.315   2.576   4.034  0.3175  1.2740  2.3127
  792WAT      O 2586   3.449   5.159   2.515  0.3757  0.1915  0.0174
  792WAT     H1 2587   3.358   5.162   2.544  1.0358  0.2309  2.2639
  792WAT     H2 2588   3.462   5.241   2.468  0.0113  1.6659  2.3166
  793WAT      O 2589   0.111   5.278   1.563 -0.4040  0.0677 -0.3646
  793WAT     H1 2590   0.202   5.285   1.589 -0.0933  0.2927 -1.4362
  793WAT     H2 2591   0.081   5.369   1.556 -0.4688  0.0181 -0.7766
  794WAT      O 2592   3.940   1.775   0.119  0.1465  0.6694  0.0391
  794WAT     H1 2593   3.851   1.808   0.115 -0.2546 -0.2918  0.5509
  794WAT     H2 2594   3.996   1.852   0.107 -0.7460  1.3096 -0.0509
  795WAT      O 2595   4.215   1.457   4.751 -0.0230  0.1814  0.3874
  795WAT     H1 2596   4.251   1.383   4.800 -0.1864  0.9596  1.7342
  795WAT     H2 2597   4.257   1.534   4.789 -0.1525  0.8259 -0.7189
  796WAT      O 2598   1.478   1.182   0.084  0.8180  0.0828 -0.0260
  796WAT     H1 2599   1.504   1.173   0.176  1.3041  0.1713 -0.1505
  796WAT     H2 2600   1.470   1.091   0.053 -0.5557  0.0247  0.4222
  797WAT      O 2601   1.939   3.352   5.591 -0.5338  0.1804  0.0248
  797WAT     H1 2602   1.945   3.343   5.686  1.3935  2.5920  0.2090
  797WAT     H2 2603   2.030   3.351   5.561 -0.9607  2.0708 -1.4711
  798WAT      O 2604   3.977   2.804   1.906  0.1210 -0.6216  0.0174
  798WAT     H1 2605   3.930   2.877   1.866 -0.3869 -0.8841  0.1337
  798WAT     H2 2606   4.020   2.760   1.833  0.2809 -0.3121 -0.0753
  799WAT      O 2607   1.216   3.280   1.951  0.8375  0.4618  0.4294
  799WAT     H1 2608   1.309   3.258   1.959  1.5020  2.5398 -0.8616
  799WAT     H2 2609   1.211   3.372   1.975 -0.7700  0.6155 -0.3529
  800WAT      O 2610   2.725   1.331   1.726 -0.3991 -0.0108  0.1597
  800WAT     H1 2611   2.728   1.287   1.811 -1.7819 -1.7585 -0.6399
  800WAT     H2 2612   2.632   1.353   1.714 -0.2085  0.2656 -0.8708
  801WAT      O 2613   0.038   3.647   1.692 -0.0082 -0.5963 -0.5586
  801WAT     H1 2614   0.051   3.560   1.729 -1.4982 -1.1555 -1.2787
  801WAT     H2 2615   0.018   3.704   1.766  0.1102 -1.0446 -0.1860
  802WAT      O 2616   3.706   4.020   2.211  0.3412 -0.0992  0.4358
  802WAT     H1 2617   3.730   4.000   2.301 -1.2624  0.5134  1.0525
  802WAT     H2 2618   3.707   4.116   2.206  3.7587 -0.0644 -1.2410
  803WAT      O 2619   1.947   0.498   1.749 -0.2530 -0.4944 -0.0199
  803WAT     H1 2620   1.976   0.449   1.826  0.3145  1.4278  1.0595
  803WAT     H2 2621   2.020   0.493   1.688 -0.4036 -1.4064 -0.1270
  804WAT      O 2622   2.018   5.309   1.825 -0.0792 -0.1983  0.0789
  804WAT     H1 2623   2.034   5.214   1.830 -0.3204 -0.1793  2.1350
  804WAT     H2 2624   1.938   5.322   1.875  0.6111  1.2411  0.8596
  805WAT      O 2625   0.761   0.361   2.203  0.0908  0.9204  0.3786
  805WAT     H1 2626   0.791   0.364   2.293  1.0057  0.1161  0.1198
  805WAT     H2 2627   0.774   0.450   2.170  2.2662  0.6237  0.2859
  806WAT      O 2628   1.484   1.345   4.015 -0.0359  0.0912 -0.6437
  806WAT     H1 2629   1.571   1.305   4.010 -0.5599 -0.9838 -1.5710
  806WAT     H2 2630   1.427   1.274   4.046 -0.2564  1.3762  2.2056
  807WAT      O 2631   4.695   4.021   1.434  0.3013 -0.0334 -0.2707
  807WAT     H1 2632   4.698   3.926   1.431 -0.6867 -0.1111  0.7135
  807WAT     H2 2633   4.784   4.049   1.410  0.4602 -1.1690 -1.0829
  808WAT      O 2634   0.970   2.528   0.740 -0.1164 -0.2081  0.1381
  808WAT     H1 2635   0.966   2.547   0.834  2.9010 -1.3616  0.6126
  808WAT     H2 2636   1.037   2.588   0.706 -0.7963 -0.1649 -1.1882
  809WAT      O 2637   4.381   4.018   1.306 -0.0755  0.2654 -0.5877
  809WAT     H1 2638   4.357   4.035   1.397 -1.6109 -0.5522 -0.8048
  809WAT     H2 2639   4.393   4.105   1.268 -1.6451  0.7046 -0.1500
  810WAT      O 2640   2.340   1.772   1.940 -0.5521 -0.2147 -0.1007
  810WAT     H1 2641   2.312   1.841   1.880 -1.5750 -0.4852  0.0521
  810WAT     H2 2642   2.285   1.697   1.917  1.8818 -1.6574 -1.6483
  811WAT      O 2643   3.598   4.333   1.178  0.0842  0.1979 -0.0544
  811WAT     H1 2644   3.687   4.366   1.163  0.0479  0.1517 -0.3712
  811WAT     H2 2645   3.607   4.238   1.170 -0.1016  0.2291 -0.6494
  812WAT      O 2646   3.920   2.737   0.085  0.2656 -0.0764 -0.1895
  812WAT     H1 2647   3.961   2.773   0.006 -0.1963 -1.8739 -1.2935
  812WAT     H2 2648   3.846   2.795   0.102  0.8430  0.8016 -0.5827
  813WAT      O 2649   1.638   1.676   0.068  0.1101  0.1358  0.0624
  813WAT     H1 2650   1.660   1.642   0.155  0.2242 -2.7295 -0.9806
  813WAT     H2 2651   1.544   1.660   0.058 -0.0234  1.0077 -0.1127
  814WAT      O 2652   1.422   2.395   0.157 -0.2669  0.0869  0.8426
  814WAT     H1 2653   1.427   2.301   0.174  0.7967 -0.0449 -0.0701
  814WAT     H2 2654   1.513   2.424   0.156 -0.3465  0.5506 -1.7327
  815WAT      O 2655   1.537   3.776   1.793  0.4178 -0.4303  0.2052
  815WAT     H1 2656   1.510   3.841   1.858 -0.1081 -1.9346  1.5597
  815WAT     H2 2657   1.485   3.797   1.715 -0.9752 -0.2015  1.1551
  816WAT      O 2658   4.811   0.508   1.736 -0.0428  0.5912 -0.2646
  816WAT     H1 2659   4.885   0.563   1.763  0.1101  1.3830 -2.1519
  816WAT     H2 2660   4.848   0.420   1.728 -0.0712  0.3196  1.8542
  817WAT      O 2661   1.395   3.463   1.266 -0.0691 -0.1926 -0.1377
  817WAT     H1 2662   1.380   3.537   1.325 -1.4047  0.6314 -1.4683
  817WAT     H2 2663   1.457   3.496   1.201  0.1904 -0.6120 -0.1117
  818WAT      O 2664   4.898   0.362   2.464 -0.0910  0.3736 -0.1056
  818WAT     H1 2665   4.853   0.301   2.406 -0.9701 -0.0860  1.0136
  818WAT     H2 2666   4.990   0.337   2.459  0.2670  1.8303 -3.0515
  819WAT      O 2667   3.170   2.539   1.258  0.2300 -0.5683  0.0812
  819WAT     H1 2668   3.182   2.463   1.316  1.1369 -1.1421 -0.8130
  819WAT     H2 2669   3.113   2.507   1.188  0.4759 -0.3825 -0.2083
  820WAT      O 2670   3.408   3.739   4.048 -0.5318 -0.3017  0.0840
  820WAT     H1 2671   3.340   3.680   4.016 -1.4717  0.9789 -0.3679
  820WAT     H2 2672   3.478   3.732   3.983 -1.8068  1.1450 -1.5657
  821WAT      O 2673   4.356   0.467   3.762 -0.1154 -0.1833 -0.2166
  821WAT     H1 2674   4.275   0.435   3.803 -0.6909  0.7280 -0.6009
  821WAT     H2 2675   4.340   0.560   3.748  1.4481  0.2567  0.7312
  822WAT      O 2676   1.395   4.497   0.777 -0.6180 -0.1860 -0.5729
  822WAT     H1 2677   1.488   4.473   0.773 -0.7528 -0.5755 -1.4299
  822WAT     H2 2678   1.355   4.429   0.831 -0.2346  0.5804  0.7429
  823WAT      O 2679   3.505   3.453   1.594 -0.4833  0.2766  0.4305
  823WAT     H1 2680   3.551   3.464   1.677 -0.3347 -1.8221  0.6889
  823WAT     H2 2681   3.430   3.397   1.616 -1.0007  0.5052 -0.6807
  824WAT      O 2682   0.202   3.384   3.848  0.0658 -0.6559 -0.1262
  824WAT     H1 2683   0.188   3.314   3.785 -1.2211  0.5234 -1.2112
  824WAT     H2 2684   0.173   3.348   3.932 -2.9595 -0.6622 -1.0876
  825WAT      O 2685   3.305   5.396   1.044 -0.2423 -0.2957  0.5216
  825WAT     H1 2686   3.373   5.337   1.010  0.0678 -0.0465  0.7036
  825WAT     H2 2687   3.303   5.468   0.980 -0.6728 -0.5379  0.2596
  826WAT      O 2688   0.477   3.789   0.157  0.0316 -0.3584  0.1580
  826WAT     H1 2689   0.449   3.709   0.113 -1.4434 -0.3762  1.0592
  826WAT     H2 2690   0.462   3.859   0.092 -0.0826 -0.6294 -0.1093
  827WAT      O 2691   4.734   3.651   2.004  0.2096 -0.2274 -0.7032
  827WAT     H1 2692   4.815   3.702   1.998  1.8359 -2.2381  1.8339
  827WAT     H2 2693   4.683   3.693   2.073  0.1837 -0.2979 -0.6788
  828WAT      O 2694   2.856   1.432   1.020 -0.0591  0.5392 -0.1467
  828WAT     H1 2695   2.926   1.367   1.015  0.0720  0.5644  1.0602
  828WAT     H2 2696   2.782   1.391   0.975 -0.9281 -1.7689  3.0033
  829WAT      O 2697   2.398   3.331   5.307  0.3187  0.4564  0.7860
  829WAT     H1 2698   2.473   3.319   5.366  0.9361  1.8502  0.3396
  829WAT     H2 2699   2.437   3.364   5.226 -0.6382 -0.2785 -0.0011
  830WAT      O 2700   4.279   3.399   0.285 -0.5282 -0.7251  0.3039
  830WAT     H1 2701   4.286   3.371   0.194 -1.4975  1.1964 -0.4216
  830WAT     H2 2702   4.189   3.428   0.294  0.2328  1.6135  1.0775
  831WAT      O 2703   2.111   3.690   0.063  0.0906  0.2740 -0.3955
  831WAT     H1 2704   2.096   3.739   0.144  1.1209 -0.3509  0.2065
  831WAT     H2 2705   2.196   3.647   0.077  0.8566  1.0767 -2.2813
  832WAT      O 2706   3.850   3.031   1.810 -0.6099 -0.4038 -0.2421
  832WAT     H1 2707   3.783   3.046   1.876  0.9511  1.0546  1.1209
  832WAT     H2 2708   3.811   3.062   1.729 -2.2659 -1.4231  0.1148
  833WAT      O 2709   2.578   3.450   4.473  0.2478  0.1646 -0.2363
  833WAT     H1 2710   2.653   3.508   4.460  0.2054  0.0704 -0.9533
  833WAT     H2 2711   2.573   3.400   4.392  0.4073 -0.9926  0.4457
  834WAT      O 2712   0.123   2.173   1.065  0.3331 -0.1185 -0.2290
  834WAT     H1 2713   0.142   2.267   1.068  0.3239 -0.1027 -0.6225
  834WAT     H2 2714   0.077   2.160   0.982  0.4107 -0.4858 -0.2185
  835WAT      O 2715   1.730   5.296   2.567  0.3326 -0.2393 -0.1398
  835WAT     H1 2716   1.678   5.252   2.634 -0.5909  0.6324 -0.2637
  835WAT     H2 2717   1.782   5.226   2.528 -0.3557 -1.0424  0.3444
  836WAT      O 2718   1.167   0.697   3.706 -0.7713  0.3164  0.3603
  836WAT     H1 2719   1.259   0.726   3.707 -0.7298  0.3274 -1.2826
  836WAT     H2 2720   1.169   0.613   3.750  0.0762  0.2205  0.1667
  837WAT      O 2721   4.639   1.876   2.341 -0.3649  0.3555  0.0662
  837WAT     H1 2722   4.651   1.969   2.361 -0.5373  0.9492 -2.2788
  837WAT     H2 2723   4.684   1.863   2.258 -0.3364 -1.6835  0.3483
  838WAT      O 2724   0.049   2.240   0.039  0.8041  0.5912 -0.4440
  838WAT     H1 2725  -0.045   2.241   0.023  0.9117  0.1454 -1.1967
  838WAT     H2 2726   0.065   2.312   0.100 -0.2957 -0.5982  1.3447
  839WAT      O 2727   2.493   0.877   3.406 -0.3071  0.2974 -0.7536
  839WAT     H1 2728   2.438   0.932   3.462  0.4724  0.2140  0.1106
  839WAT     H2 2729   2.452   0.883   3.319 -1.4940  0.4793 -0.1968
  840WAT      O 2730   0.103   3.584   3.642 -0.7679  0.2506  0.5989
  840WAT     H1 2731   0.196   3.560   3.632 -0.0668  2.1198  2.0639
  840WAT     H2 2732   0.067   3.514   3.697 -0.0474 -0.1137  0.6287
  841WAT      O 2733   0.812   1.684   3.344  0.2599 -0.0237  0.7553
  841WAT     H1 2734   0.897   1.689   3.389  0.4724 -0.2468  0.3754
  841WAT     H2 2735   0.757   1.747   3.391  0.4285 -0.3819  1.4459
  842WAT      O 2736   1.035   1.194   0.569  0.4098 -0.1505  0.3473
  842WAT     H1 2737   0.941   1.193   0.554  0.3836 -1.6462  0.3775
  842WAT     H2 2738   1.059   1.286   0.568 -1.0446  0.2531  0.3112
  843WAT      O 2739   4.874   0.335   2.886 -0.5486  0.0364  0.3898
  843WAT     H1 2740   4.819   0.264   2.854 -1.4112  0.5181  0.7872
  843WAT     H2 2741   4.885   0.393   2.810  0.9269 -0.9526 -0.2083
  844WAT      O 2742   0.742   1.285   3.572 -0.0777  0.5058 -0.2915
  844WAT     H1 2743   0.716   1.196   3.594  0.4659  0.3070 -0.4529
  844WAT     H2 2744   0.805   1.309   3.640 -0.5291  0.9211 -0.0095
  845WAT      O 2745   3.012   4.691   3.879 -0.1884  0.5862 -0.1664
  845WAT     H1 2746   3.015   4.714   3.971  1.9596 -0.2360  0.0276
  845WAT     H2 2747   2.988   4.772   3.834  0.2070  1.3718  1.0044
  846WAT      O 2748   0.322   3.549   0.432 -0.1551  0.0340 -0.0525
  846WAT     H1 2749   0.297   3.637   0.403 -0.2820  0.3587  0.9797
  846WAT     H2 2750   0.251   3.522   0.490 -1.1880 -1.6613 -2.0021
  847WAT      O 2751   1.730   2.033   3.346 -0.3716  0.1048 -0.1948
  847WAT     H1 2752   1.747   1.976   3.271  0.5492  0.0593  0.0378
  847WAT     H2 2753   1.798   2.011   3.409 -0.3706  1.0320  0.1479
  848WAT      O 2754   4.522   1.848   5.579  0.4710  0.5741  0.1118
  848WAT     H1 2755   4.557   1.924   5.626 -2.1558  2.4426 -0.7969
  848WAT     H2 2756   4.475   1.798   5.646  0.6037  0.7473  0.3339
  849WAT      O 2757   3.232   0.256   2.024  0.1793 -0.3151 -0.8653
  849WAT     H1 2758   3.318   0.253   1.983 -0.1248  0.4036 -1.5914
  849WAT     H2 2759   3.201   0.166   2.023  0.7323 -0.5063 -1.0029
  850WAT      O 2760   1.267   4.499   3.493 -0.5539 -0.0387 -0.2614
  850WAT     H1 2761   1.254   4.472   3.402 -1.0554  0.5365 -0.3675
  850WAT     H2 2762   1.250   4.420   3.544  1.0470 -0.7366 -0.7165
  851WAT      O 2763   3.382   4.959   2.321  0.2951  0.0617  0.0560
  851WAT     H1 2764   3.395   5.033   2.381  1.5384  0.4338 -0.6448
  851WAT     H2 2765   3.289   4.965   2.296 -0.2005  0.0362  1.7297
  852WAT      O 2766   1.062   4.295   5.463  0.2906  0.2593  0.4369
  852WAT     H1 2767   1.051   4.332   5.376  1.8004 -1.0730 -0.3843
  852WAT     H2 2768   1.157   4.294   5.476  0.1287 -0.4346  1.7092
  853WAT      O 2769   3.350   2.680   4.955  0.2161  0.5266  0.0798
  853WAT     H1 2770   3.406   2.693   4.879 -0.6713  1.1288 -0.4955
  853WAT     H2 2771   3.407   2.692   5.031  0.7353  1.7484 -0.4896
  854WAT      O 2772   2.617   1.597   2.943  0.3594  0.3670 -0.0412
  854WAT     H1 2773   2.574   1.680   2.922 -0.1816  0.2226  0.4545
  854WAT     H2 2774   2.550   1.548   2.990  0.7477 -0.2686 -0.1478
  855WAT      O 2775   4.567   1.619   2.469  0.0519 -0.1606  0.2331
  855WAT     H1 2776   4.639   1.583   2.417 -0.6591 -0.4913 -0.5371
  855WAT     H2 2777   4.568   1.713   2.448 -1.3235 -0.5324 -1.8068
  856WAT      O 2778   4.506   1.630   4.697 -0.2678  0.3869  0.0808
  856WAT     H1 2779   4.591   1.653   4.661 -0.5055  1.2352  0.0569
  856WAT     H2 2780   4.492   1.539   4.669  0.8964  0.0369  0.6106
  857WAT      O 2781   1.806   5.446   1.626 -0.3305 -0.9963  0.0615
  857WAT     H1 2782   1.895   5.419   1.648 -1.0257 -2.7687  0.9511
  857WAT     H2 2783   1.765   5.461   1.711 -0.8988 -0.2846 -0.3355
  858WAT      O 2784   0.387   5.377   1.968  0.0600  0.0379 -0.1983
  858WAT     H1 2785   0.360   5.375   1.876 -1.0667 -0.4508  0.1284
  858WAT     H2 2786   0.337   5.450   2.005 -0.0716 -0.2495  0.1923
  859WAT      O 2787   3.738   5.131   3.500 -0.5910  0.2398 -0.0795
  859WAT     H1 2788   3.753   5.052   3.448 -0.2544  0.9339 -1.0624
  859WAT     H2 2789   3.740   5.101   3.590 -0.3432 -0.8529 -0.4336
  860WAT      O 2790   1.742   1.065   4.604  0.4502 -0.2820  0.2462
  860WAT     H1 2791   1.687   1.138   4.634 -0.8132 -1.0172 -0.1902
  860WAT     H2 2792   1.707   0.989   4.650  0.4104 -0.9432 -0.8458
  861WAT      O 2793   4.186   1.288   4.293 -0.2428 -0.5083  0.0686
  861WAT     H1 2794   4.257   1.340   4.255 -1.4875  0.7673 -0.5784
  861WAT     H2 2795   4.217   1.198   4.286  0.4593 -0.1611 -2.1204
  862WAT      O 2796   2.479   2.360   0.803 -0.1659  0.4453 -0.1507
  862WAT     H1 2797   2.435   2.429   0.853  0.9030 -0.3355  1.9881
  862WAT     H2 2798   2.569   2.393   0.792  0.3666 -0.5748  0.9311
  863WAT      O 2799   4.001   4.133   3.620  0.0475  0.0804  0.0619
  863WAT     H1 2800   4.071   4.084   3.664  0.0432 -0.8085 -0.8885
  863WAT     H2 2801   4.032   4.224   3.622  0.1266  0.0448  1.7058
  864WAT      O 2802   4.286   1.498   4.146 -0.3857  0.3960 -0.2943
  864WAT     H1 2803   4.222   1.471   4.079  1.3458 -0.9237 -1.5061
  864WAT     H2 2804   4.334   1.570   4.105 -0.1251  0.4051  0.0300
  865WAT      O 2805   4.365   3.900   5.131  0.3906 -0.5249  0.1483
  865WAT     H1 2806   4.358   3.915   5.225 -0.5176 -0.3533  0.0658
  865WAT     H2 2807   4.455   3.871   5.117  0.1710 -1.7800  1.2379
  866WAT      O 2808   3.558   1.878   0.698  0.5774  0.3515  0.5412
  866WAT     H1 2809   3.506   1.851   0.622 -0.0499 -0.1683  1.1358
  866WAT     H2 2810   3.493   1.899   0.765  1.0849  2.0672  0.5510
  867WAT      O 2811   1.378   2.598   3.110 -0.5785  0.0511  0.3609
  867WAT     H1 2812   1.386   2.689   3.081 -1.5210 -0.5920 -2.1583
  867WAT     H2 2813   1.468   2.564   3.109 -0.3739  0.5919  0.0679
  868WAT      O 2814   3.924   2.751   4.052 -0.4373 -0.0675  0.6909
  868WAT     H1 2815   3.926   2.820   4.119  1.6477  1.3632 -0.7097
  868WAT     H2 2816   3.831   2.740   4.033 -0.8627  2.9288  0.4972
  869WAT      O 2817   0.638   1.421   4.732  0.1951 -0.5508  0.2677
  869WAT     H1 2818   0.717   1.369   4.745  0.5957  0.3429  1.7061
  869WAT     H2 2819   0.646   1.493   4.796 -2.3639 -1.1141  1.3583
  870WAT      O 2820   1.641   0.088   2.861 -0.2199  0.3669  0.3914
  870WAT     H1 2821   1.723   0.043   2.880 -0.6984 -0.2576  1.0675
  870WAT     H2 2822   1.640   0.097   2.765  0.1086 -0.6566  0.2790
  871WAT      O 2823   4.261   2.057   1.079 -0.1349 -0.3730 -0.0775
  871WAT     H1 2824   4.348   2.082   1.049 -0.1036 -0.1449  0.1965
  871WAT     H2 2825   4.202   2.114   1.030 -0.1850 -1.1167 -0.8931
  872WAT      O 2826   0.645   0.378   2.840  0.1119  0.0618 -0.0069
  872WAT     H1 2827   0.678   0.417   2.759 -1.3616  3.3487  0.8032
  872WAT     H2 2828   0.634   0.452   2.900 -2.1225 -1.7463  2.0505
  873WAT      O 2829   2.809   4.388   4.712 -0.1304  0.2900  0.4572
  873WAT     H1 2830   2.729   4.362   4.667  0.7179 -0.7845 -0.4983
  873WAT     H2 2831   2.830   4.474   4.676 -0.0598 -0.0739 -0.3758
  874WAT      O 2832   4.227   1.791   1.218 -0.1504 -0.4717  0.0170
  874WAT     H1 2833   4.132   1.774   1.220 -0.3934  0.6801 -0.7883
  874WAT     H2 2834   4.239   1.850   1.144  0.8068  1.6964  1.8186
  875WAT      O 2835   1.210   5.020   3.432 -0.3034  0.3203 -0.1770
  875WAT     H1 2836   1.185   5.077   3.359  0.1581  0.4897 -0.2096
  875WAT     H2 2837   1.263   5.076   3.489  0.6089 -0.2049 -0.4816
  876WAT      O 2838   0.657   1.157   1.261 -0.1330  0.4842 -0.0733
  876WAT     H1 2839   0.676   1.081   1.206  0.3432 -0.6147  1.5672
  876WAT     H2 2840   0.604   1.123   1.332  1.2074  1.3946  1.4273
  877WAT      O 2841   4.455   3.281   3.575  0.4877  0.4372  0.2808
  877WAT     H1 2842   4.364   3.293   3.601  0.8424  0.8426  1.3712
  877WAT     H2 2843   4.482   3.365   3.538  1.0093  0.9678  1.8262
  878WAT      O 2844   1.954   5.296   3.787 -0.1362  0.3700  0.5181
  878WAT     H1 2845   1.900   5.306   3.708  1.8718  0.0050 -0.9673
  878WAT     H2 2846   1.974   5.386   3.813  0.7203  0.5027 -0.5232
  879WAT      O 2847   1.478   1.950   4.509 -0.0523 -0.6933 -0.1062
  879WAT     H1 2848   1.524   1.866   4.508  0.7599 -0.2515 -1.5793
  879WAT     H2 2849   1.522   2.001   4.577  0.9291 -0.6740 -0.7403
  880WAT      O 2850   0.414   2.456   3.098  0.2081 -0.1210 -0.4522
  880WAT     H1 2851   0.422   2.551   3.087 -0.1959 -0.0951 -0.5561
  880WAT     H2 2852   0.504   2.425   3.102  0.3455  0.2574 -0.5108
  881WAT      O 2853   3.553   1.895   3.094 -0.1088 -0.1730 -0.0614
  881WAT     H1 2854   3.527   1.887   3.002  1.3434  3.9123 -1.0295
  881WAT     H2 2855   3.472   1.920   3.139 -0.7841 -2.0028 -0.1456
  882WAT      O 2856   2.302   5.480   3.788 -0.3795  0.7510  0.1152
  882WAT     H1 2857   2.261   5.394   3.782 -0.7990  0.9007  0.7971
  882WAT     H2 2858   2.321   5.504   3.697  0.4514 -0.3929 -0.0264
  883WAT      O 2859   2.653   0.141   3.427 -0.1995 -0.0697 -0.2636
  883WAT     H1 2860   2.589   0.192   3.377  1.4158  1.0135 -1.3302
  883WAT     H2 2861   2.622   0.146   3.517 -1.1823  1.1238 -0.6370
  884WAT      O 2862   2.956   3.992   3.827  0.3906 -0.1502  0.4680
  884WAT     H1 2863   2.985   4.056   3.893  1.0803 -0.8410  0.8492
  884WAT     H2 2864   2.879   3.951   3.866  0.8976 -0.6789  0.9276
  885WAT      O 2865   3.819   5.516   3.859 -0.7477  0.7256 -0.4979
  885WAT     H1 2866   3.764   5.553   3.790 -0.8296 -0.0932 -0.8826
  885WAT     H2 2867   3.853   5.592   3.905 -1.4861  1.2677 -0.8159
  886WAT      O 2868   4.780   2.972   3.954  0.3010 -0.4563  0.1079
  886WAT     H1 2869   4.711   2.928   4.003 -1.0550  0.0547 -1.2768
  886WAT     H2 2870   4.739   2.997   3.871  0.5516  4.3340  1.0975
  887WAT      O 2871   3.500   2.621   4.301 -0.3219 -0.7677  0.0336
  887WAT     H1 2872   3.418   2.596   4.344 -1.4463 -2.3341 -2.7470
  887WAT     H2 2873   3.554   2.542   4.304  0.0764 -0.5148 -0.3156
  888WAT      O 2874   2.930   2.375   2.819 -0.0098 -0.5809 -0.1789
  888WAT     H1 2875   2.935   2.433   2.743 -1.4474 -0.2678 -0.0578
  888WAT     H2 2876   3.018   2.377   2.856  0.5942 -0.3686 -1.5548
  889WAT      O 2877   0.718   2.308   5.661  0.4816 -0.2678  0.0965
  889WAT     H1 2878   0.740   2.216   5.643  1.7420  0.3276 -1.6120
  889WAT     H2 2879   0.793   2.358   5.629 -0.0285  1.3645  1.3195
  890WAT      O 2880   1.752   3.445   3.312  0.7443  0.1766  0.1048
  890WAT     H1 2881   1.721   3.459   3.222 -0.2835  0.2793  0.4735
  890WAT     H2 2882   1.775   3.532   3.343  1.5770  0.0856 -0.2131
  891WAT      O 2883   2.072   3.341   0.001 -0.1173 -0.2222  0.5618
  891WAT     H1 2884   2.085   3.358   0.094 -1.0356  0.0992  0.6445
  891WAT     H2 2885   2.160   3.345  -0.036  0.2731 -0.4742  1.4303
  892WAT      O 2886   1.264   1.459   3.392 -0.2011 -0.1737  0.8533
  892WAT     H1 2887   1.247   1.368   3.367 -2.5589  0.3202  0.4237
  892WAT     H2 2888   1.286   1.503   3.310  0.6588 -0.2633  1.0205
  893WAT      O 2889   1.187   0.230   2.372  0.2515  0.8917  0.1309
  893WAT     H1 2890   1.134   0.160   2.332  0.8701  0.6589 -0.2919
  893WAT     H2 2891   1.141   0.311   2.350  0.7257  0.7885 -1.2969
  894WAT      O 2892   3.891   0.591   1.237  0.1483  0.3965 -0.3231
  894WAT     H1 2893   3.907   0.684   1.218  0.1537  0.4079 -0.2627
  894WAT     H2 2894   3.796   0.581   1.226  0.0225  0.6004  0.4898
  895WAT      O 2895   0.117   3.415   1.798 -0.5934  0.4797 -0.1465
  895WAT     H1 2896   0.198   3.437   1.842  1.1240 -0.4329 -2.6140
  895WAT     H2 2897   0.140   3.343   1.739 -2.9440  0.8009 -1.6290
  896WAT      O 2898   0.550   1.646   4.954  0.3039 -1.0841  0.2060
  896WAT     H1 2899   0.595   1.605   5.028 -2.3500 -0.3247  2.3801
  896WAT     H2 2900   0.518   1.729   4.988  1.0226  0.4565 -2.5691
  897WAT      O 2901   0.091   2.759   3.212 -0.2694 -0.4799 -0.1381
  897WAT     H1 2902   0.183   2.768   3.185  0.1854  0.9427  1.6863
  897WAT     H2 2903   0.042   2.806   3.145  0.6411  1.3163  0.3834
  898WAT      O 2904   3.629   0.517   3.861  0.1917 -0.6694 -0.2879
  898WAT     H1 2905   3.594   0.490   3.945 -0.9287 -1.3006 -0.9412
  898WAT     H2 2906   3.724   0.503   3.869  0.6381  2.5861  2.0741
  899WAT      O 2907   1.089   2.777   0.524  0.3338 -0.4687 -0.2061
  899WAT     H1 2908   1.159   2.732   0.571 -0.7457 -1.1350  0.8220
  899WAT     H2 2909   1.063   2.717   0.454  0.2512 -0.5660 -0.0911
  900WAT      O 2910   2.421   4.493   3.226  0.3588  0.3752  0.5050
  900WAT     H1 2911   2.335   4.535   3.226 -0.3853 -0.9019 -2.2592
  900WAT     H2 2912   2.482   4.565   3.206 -0.2298  1.0225  0.9773
  901WAT      O 2913   0.930   5.538   3.348  0.3527  0.6245 -0.3450
  901WAT     H1 2914   0.926   5.624   3.306  0.4469  1.3777  1.1227
  901WAT     H2 2915   0.883   5.550   3.430 -0.3818 -0.9811 -0.4880
  902WAT      O 2916   2.049   2.397   4.363 -0.2771  0.2183 -0.4961
  902WAT     H1 2917   2.045   2.301   4.363 -1.8656  0.2642 -0.1831
  902WAT     H2 2918   1.973   2.424   4.415  0.9988  1.6234  0.7338
  903WAT      O 2919   2.715   2.293   4.758 -0.0042  0.0986  0.0972
  903WAT     H1 2920   2.759   2.367   4.715  0.6740 -0.0870  0.4647
  903WAT     H2 2921   2.786   2.238   4.790 -0.4812 -1.2007 -0.9751
  904WAT      O 2922   3.083   2.096   5.237  0.2585  0.0477  0.2454
  904WAT     H1 2923   3.096   2.076   5.144  0.5942 -1.8477  0.6481
  904WAT     H2 2924   3.165   2.069   5.279 -0.3983 -0.4605  1.2523
  905WAT      O 2925   1.503   1.136   2.602  0.0214  0.4434 -0.2334
  905WAT     H1 2926   1.537   1.055   2.640  1.6179  1.6345  1.0316
  905WAT     H2 2927   1.415   1.144   2.638 -0.6773 -1.3679 -1.4414
  906WAT      O 2928   1.568   1.392   5.491  0.3243 -0.0259  0.8261
  906WAT     H1 2929   1.597   1.467   5.543 -0.5828  1.0027 -0.0864
  906WAT     H2 2930   1.485   1.366   5.531 -0.5151  0.9420 -0.2012
  907WAT      O 2931   0.664   3.963   5.165  0.2767 -0.6652  1.0557
  907WAT     H1 2932   0.728   3.893   5.154  0.1025 -1.1827  2.9769
  907WAT     H2 2933   0.714   4.044   5.156  0.5691 -1.0110 -0.6997
  908WAT      O 2934   4.896   2.544   4.736  0.0131 -0.2781 -0.0007
  908WAT     H1 2935   4.982   2.540   4.694  0.2266  1.0008  0.2802
  908WAT     H2 2936   4.893   2.464   4.790 -0.1127 -1.7454 -2.0718
  909WAT      O 2937   0.249   0.814   3.154 -0.4818 -0.1926 -0.2569
  909WAT     H1 2938   0.255   0.909   3.144  0.7243 -0.3442 -1.1473
  909WAT     H2 2939   0.337   0.782   3.136 -0.8886 -1.4936 -0.0247
  910WAT      O 2940   3.501   2.523   0.822 -0.2953 -0.4285 -0.1650
  910WAT     H1 2941   3.576   2.477   0.860 -1.2633 -1.7031  0.2776
  910WAT     H2 2942   3.488   2.598   0.881 -0.2612 -1.0133  0.6108
  911WAT      O 2943   1.084   0.141   2.855 -0.2004  0.1089  0.5102
  911WAT     H1 2944   1.165   0.117   2.810  0.0016  0.2892  0.7710
  911WAT     H2 2945   1.112   0.161   2.945 -0.9419 -2.8500  1.5005
  912WAT      O 2946   4.967   2.473   5.325  0.6669  0.2821 -0.2535
  912WAT     H1 2947   5.031   2.528   5.371  1.2269 -0.9463  0.4691
  912WAT     H2 2948   4.882   2.511   5.348  1.0925  1.7963 -1.0452
  913WAT      O 2949   4.564   2.635   0.794  0.1439  0.2572 -0.3133
  913WAT     H1 2950   4.519   2.550   0.801 -1.7967  1.3049  0.6039
  913WAT     H2 2951   4.608   2.646   0.878 -0.4728  0.6120 -0.0321
  914WAT      O 2952   0.628   3.762   5.514  0.2499 -0.1880  0.0479
  914WAT     H1 2953   0.708   3.812   5.495  0.2783 -0.5115 -0.7501
  914WAT     H2 2954   0.578   3.818   5.573  0.5467  0.5242 -0.3654
  915WAT      O 2955   0.420   1.819   3.623  1.0044 -0.2738 -0.1706
  915WAT     H1 2956   0.398   1.875   3.697  0.9689  1.5102 -1.4533
  915WAT     H2 2957   0.336   1.782   3.595  0.9917 -0.7943  0.5434
  916WAT      O 2958   4.238   1.483   1.333 -0.1648 -0.0114  0.7975
  916WAT     H1 2959   4.226   1.548   1.403  0.1383  0.2252  0.6339
  916WAT     H2 2960   4.264   1.535   1.257 -0.1724 -0.3013  0.5959
  917WAT      O 2961   1.593   1.714   4.531 -0.3196  0.0786  0.4759
  917WAT     H1 2962   1.551   1.647   4.586 -0.6908  0.4200  0.6110
  917WAT     H2 2963   1.657   1.665   4.479 -0.9271 -0.4668  0.2210
  918WAT      O 2964   1.091   1.446   4.174  0.1034 -0.0114 -0.0160
  918WAT     H1 2965   1.068   1.443   4.081  0.1026  1.8614 -0.1178
  918WAT     H2 2966   1.185   1.462   4.176 -0.0238  0.7404  0.2856
  919WAT      O 2967   0.981   1.963   4.630 -0.2962  0.0081 -0.4101
  919WAT     H1 2968   0.917   1.986   4.697 -0.2561  0.8074 -0.6345
  919WAT     H2 2969   0.958   2.018   4.555  0.1607 -0.2829 -0.7704
  920WAT      O 2970   1.205   3.092   2.867 -0.2204 -0.2346 -0.0799
  920WAT     H1 2971   1.122   3.083   2.819 -0.7770  0.0755  0.8076
  920WAT     H2 2972   1.248   3.167   2.827 -0.4686 -0.2552 -0.3901
  921WAT      O 2973   0.285   1.673   2.470 -0.4318  0.8679  0.0551
  921WAT     H1 2974   0.343   1.717   2.408 -1.3936  0.9384 -0.8198
  921WAT     H2 2975   0.290   1.726   2.550  0.9676  0.6651  0.1276
  922WAT      O 2976   3.215   0.912   3.645 -0.6698  0.0875  0.1142
  922WAT     H1 2977   3.138   0.864   3.616 -0.9082  0.4301  0.1691
  922WAT     H2 2978   3.183   0.965   3.719 -0.2387 -0.2393  0.5391
  923WAT      O 2979   0.192   1.711   3.246  0.2249  0.4498 -0.1923
  923WAT     H1 2980   0.287   1.708   3.237  0.3097 -0.0296  0.8432
  923WAT     H2 2981   0.176   1.730   3.338 -0.6806  1.5822 -0.5497
  924WAT      O 2982   0.066   0.637   1.745 -0.3047  0.0412 -0.4733
  924WAT     H1 2983   0.129   0.685   1.798 -1.1751 -0.5795  1.2226
  924WAT     H2 2984   0.115   0.563   1.709  0.7654  1.5313 -2.1931
  925WAT      O 2985   3.390   1.859   2.482  0.2144 -0.2769 -0.3486
  925WAT     H1 2986   3.298   1.881   2.497  0.2635 -0.4312  0.2062
  925WAT     H2 2987   3.392   1.763   2.489  0.6981 -0.1723  1.3303
  926WAT      O 2988   1.252   1.162   3.270 -0.0202  0.6108  0.3365
  926WAT     H1 2989   1.319   1.116   3.219  0.6239  0.5671  1.2081
  926WAT     H2 2990   1.169   1.133   3.232  0.4051 -0.6405  0.3297
  927WAT      O 2991   1.920   1.412   0.970 -0.8128  0.0266  0.4036
  927WAT     H1 2992   1.899   1.481   0.907 -0.5185  0.7582  1.0908
  927WAT     H2 2993   1.835   1.377   0.995 -0.8970 -1.0880 -1.2531
  928WAT      O 2994   1.554   4.675   2.827  0.4205 -0.4020 -0.0595
  928WAT     H1 2995   1.537   4.769   2.823 -0.2197 -0.5374 -0.7557
  928WAT     H2 2996   1.540   4.651   2.918  0.2127  0.1157  0.0440
  929WAT      O 2997   4.361   1.512   1.069  0.6441  0.3613 -0.1859
  929WAT     H1 2998   4.417   1.589   1.062  1.6914 -0.4731 -1.9134
  929WAT     H2 2999   4.417   1.445   1.108  1.1725 -0.6833 -2.5621
  930WAT      O 3000   0.735   3.112   1.478  0.4778  0.7748 -0.1535
  930WAT     H1 3001   0.801   3.050   1.510 -0.2974 -0.0341 -0.0804
  930WAT     H2 3002   0.780   3.160   1.408  1.1071  0.1535 -0.1901
  931WAT      O 3003   4.642   1.182   3.662 -0.3451 -0.1404 -0.2456
  931WAT     H1 3004   4.628   1.258   3.718  0.3728  1.2950 -1.9046
  931WAT     H2 3005   4.734   1.189   3.635 -0.0971 -1.9422  0.0112
  932WAT      O 3006   1.514   4.136   4.091  0.1637 -0.2024 -0.0997
  932WAT     H1 3007   1.533   4.042   4.085 -1.9529 -0.6386 -0.9896
  932WAT     H2 3008   1.485   4.149   4.181 -2.4397 -1.1047 -0.7100
  933WAT      O 3009   4.022   0.839   2.059 -0.1912 -0.0999  0.3629
  933WAT     H1 3010   4.036   0.907   1.993 -2.3256 -0.5942 -0.6961
  933WAT     H2 3011   4.007   0.759   2.009 -1.0461 -0.6629  1.4670
  934WAT      O 3012   0.420   5.416   3.291  0.5271 -0.2402 -0.1032
  934WAT     H1 3013   0.449   5.451   3.207  0.6870 -0.9922 -0.3684
  934WAT     H2 3014   0.329   5.445   3.298  0.0886 -1.2646 -1.1606
  935WAT      O 3015   3.886   1.320   1.806 -0.0062  0.6152  0.1486
  935WAT     H1 3016   3.835   1.254   1.759 -0.3037  1.2408 -0.4254
  935WAT     H2 3017   3.910   1.384   1.739  0.7676  0.8008  0.5899
  936WAT      O 3018   0.774   1.918   5.215  0.8653  0.6221 -0.4557
  936WAT     H1 3019   0.861   1.877   5.221 -0.0353 -1.2192  1.0315
  936WAT     H2 3020   0.719   1.865   5.272 -1.6368  0.7861 -2.5663
  937WAT      O 3021   4.779   1.688   4.605 -0.2780 -0.1284 -0.7655
  937WAT     H1 3022   4.868   1.692   4.639 -0.3160 -0.8633 -0.5594
  937WAT     H2 3023   4.786   1.635   4.525 -0.6619 -0.9334 -0.2752
  938WAT      O 3024   3.642   3.492   0.230  0.1318 -0.2517 -0.0184
  938WAT     H1 3025   3.554   3.526   0.248  0.2131  0.4592 -0.8808
  938WAT     H2 3026   3.670   3.539   0.152  1.1254 -0.7686  0.0103
  939WAT      O 3027   1.738   2.053   2.674  0.1094 -0.4054 -0.2306
  939WAT     H1 3028   1.720   2.002   2.595  0.0718  0.0646 -0.5263
  939WAT     H2 3029   1.667   2.117   2.679 -1.6007 -2.2977  1.7985
  940WAT      O 3030   4.675   2.723   2.918 -0.0053 -0.5072 -0.5253
  940WAT     H1 3031   4.638   2.808   2.943  0.5893 -0.2365 -0.5639
  940WAT     H2 3032   4.706   2.685   3.001  0.0204 -0.5466 -0.5529
  941WAT      O 3033   1.375   3.685   1.081 -0.6180 -0.3927 -0.0766
  941WAT     H1 3034   1.325   3.620   1.130 -0.1003 -0.9898 -0.3268
  941WAT     H2 3035   1.383   3.648   0.993 -0.1027 -0.1088 -0.1521
  942WAT      O 3036   0.156   3.300   5.189 -0.6584  0.5238 -0.0335
  942WAT     H1 3037   0.187   3.211   5.206  3.3582  1.3447 -1.9064
  942WAT     H2 3038   0.142   3.337   5.276  0.5996 -1.0151  0.8851
  943WAT      O 3039   2.761   2.712   2.519  0.0971  0.0369  0.0640
  943WAT     H1 3040   2.703   2.657   2.466 -0.3445  0.4404  0.1163
  943WAT     H2 3041   2.705   2.784   2.547  0.4833  0.1329  0.5920
  944WAT      O 3042   0.721   2.337   3.762 -0.0078  0.9758 -0.3344
  944WAT     H1 3043   0.792   2.365   3.819 -1.1146 -0.4723  1.9073
  944WAT     H2 3044   0.642   2.373   3.802 -0.8383 -0.2207 -0.8254
  945WAT      O 3045   1.013   0.412   4.198 -0.8869 -0.0797  0.4490
  945WAT     H1 3046   1.009   0.334   4.253  1.1519 -0.0144  0.7870
  945WAT     H2 3047   1.007   0.379   4.108  1.0787 -0.8148  0.5355
  946WAT      O 3048   2.627   0.907   1.563 -0.0838  0.0836  0.1881
  946WAT     H1 3049   2.633   0.994   1.522  1.5516  0.1033  0.4133
  946WAT     H2 3050   2.610   0.926   1.655 -1.5403  0.0920 -0.0564
  947WAT      O 3051   2.687   2.971   2.269  0.2500 -0.1687 -1.1617
  947WAT     H1 3052   2.662   3.061   2.248  1.1786 -0.0375 -1.7871
  947WAT     H2 3053   2.661   2.960   2.360 -0.1632  0.6309 -1.1719
  948WAT      O 3054   2.926   2.724   0.347  0.4460 -0.1259 -0.3839
  948WAT     H1 3055   2.987   2.685   0.410 -1.0741 -1.9361  0.0537
  948WAT     H2 3056   2.859   2.765   0.401  0.0547 -0.1633 -0.8384
  949WAT      O 3057   1.880   3.302   2.136  0.1343 -0.0628  0.2843
  949WAT     H1 3058   1.844   3.390   2.122  0.3294  0.2254  1.4926
  949WAT     H2 3059   1.889   3.266   2.048  0.9100  1.4742 -0.3081
  950WAT      O 3060   3.582   2.092   3.968  0.2077 -0.2867 -0.3699
  950WAT     H1 3061   3.666   2.064   3.931  0.2356  0.3211 -0.7792
  950WAT     H2 3062   3.527   2.109   3.892 -0.3664 -0.8959 -0.1011
  951WAT      O 3063   0.874   2.797   4.437 -0.0007  0.5342  0.7590
  951WAT     H1 3064   0.823   2.867   4.478  0.3329  0.4303  1.3691
  951WAT     H2 3065   0.811   2.748   4.385 -1.0512 -0.9296  3.1956
  952WAT      O 3066   2.274   0.807   2.777  0.1724  0.2919  0.1132
  952WAT     H1 3067   2.315   0.881   2.822  0.7684  0.0001  0.0652
  952WAT     H2 3068   2.209   0.775   2.839  0.4309  0.3935  0.4396
  953WAT      O 3069   3.687   3.803   1.859 -0.2367 -0.1761  0.0202
  953WAT     H1 3070   3.740   3.788   1.937  0.7844  0.1691 -0.5824
  953WAT     H2 3071   3.616   3.860   1.889  0.2892  0.1615  0.6520
  954WAT      O 3072   0.969   5.658   1.825  0.3272 -0.3186  0.5865
  954WAT     H1 3073   0.948   5.599   1.898  0.7653 -0.9933  0.1790
  954WAT     H2 3074   1.044   5.617   1.782 -0.8289 -0.7400 -1.1518
  955WAT      O 3075   4.577   5.306   2.845 -0.0990 -0.3867 -0.4587
  955WAT     H1 3076   4.528   5.233   2.880 -0.9058  0.2890 -0.1512
  955WAT     H2 3077   4.667   5.274   2.838  0.0323 -0.6772  1.8394
  956WAT      O 3078   1.089   4.696   2.387  0.5720 -0.4763  0.0155
  956WAT     H1 3079   1.120   4.612   2.353  2.3720 -0.2002  0.8529
  956WAT     H2 3080   1.163   4.755   2.377  0.1795  0.3613  1.6782
  957WAT      O 3081   2.982   5.517   3.321  0.0134  0.3203  0.2104
  957WAT     H1 3082   3.038   5.440   3.335  1.4450  1.0266 -1.2066
  957WAT     H2 3083   3.002   5.575   3.394  0.1177  0.0046  0.4353
  958WAT      O 3084   3.388   5.383   2.373  0.2136 -0.3652 -0.2542
  958WAT     H1 3085   3.298   5.369   2.344 -0.9515  0.8305  2.3635
  958WAT     H2 3086   3.385   5.467   2.419  2.5789 -0.4968  0.2733
  959WAT      O 3087   3.189   1.671   0.998  0.3480 -0.6946 -0.0169
  959WAT     H1 3088   3.188   1.761   0.964  0.2159  1.2213  4.3110
  959WAT     H2 3089   3.100   1.657   1.031  1.3742 -0.5484  3.1957
  960WAT      O 3090   4.569   3.193   3.989 -0.0834  0.0546  0.3472
  960WAT     H1 3091   4.527   3.133   3.928 -0.2816  0.7911 -0.2524
  960WAT     H2 3092   4.555   3.153   4.075 -0.6726 -0.4809  0.0117
  961WAT      O 3093   0.662   1.392   2.939  0.2909 -0.3337 -0.0151
  961WAT     H1 3094   0.708   1.462   2.985  1.3737 -0.5392 -0.7322
  961WAT     H2 3095   0.609   1.437   2.873 -0.6558 -0.0872  0.9004
  962WAT      O 3096   2.245   1.901   1.736  0.2038  0.0753  0.0150
  962WAT     H1 3097   2.295   1.843   1.678  0.8454 -0.9668  1.5508
  962WAT     H2 3098   2.213   1.970   1.678  1.7516 -0.3029 -1.3846
  963WAT      O 3099   0.004   4.091   1.990  0.1383 -0.3912 -0.6941
  963WAT     H1 3100   0.057   4.129   1.920 -1.5863  0.8057 -1.4333
  963WAT     H2 3101  -0.002   4.160   2.056 -1.3809 -0.0511 -1.1417
  964WAT      O 3102   1.633   0.902   2.772 -0.1183 -0.3235  0.1623
  964WAT     H1 3103   1.590   0.823   2.803  0.7979 -1.7255 -1.9033
  964WAT     H2 3104   1.638   0.959   2.849 -0.1862 -2.5259  1.8832
  965WAT      O 3105   1.740   1.260   4.051 -0.3624 -0.0195 -0.1593
  965WAT     H1 3106   1.803   1.318   4.094 -0.6926  1.6195 -1.7895
  965WAT     H2 3107   1.768   1.172   4.076  1.6450  0.7221  0.3818
  966WAT      O 3108   0.760   2.180   3.341 -0.4241  0.6679  0.6379
  966WAT     H1 3109   0.818   2.255   3.335  1.4062 -0.7531 -0.3312
  966WAT     H2 3110   0.783   2.138   3.424  1.5835 -1.1225 -0.7464
  967WAT      O 3111   1.416   1.990   3.072 -0.3652  0.0432  0.0088
  967WAT     H1 3112   1.377   2.037   2.998 -0.0363 -0.5468 -0.5493
  967WAT     H2 3113   1.455   1.911   3.033  1.8058  0.8245  0.4303
  968WAT      O 3114   1.851   0.157   3.137 -0.4810  0.5478 -0.5957
  968WAT     H1 3115   1.796   0.140   3.060  0.5919  0.1295 -1.2826
  968WAT     H2 3116   1.933   0.191   3.101  0.6996 -1.2964  0.2304
  969WAT      O 3117   1.450   2.361   2.443  0.0952 -0.1304  0.0961
  969WAT     H1 3118   1.364   2.322   2.457  0.1079 -0.1235  0.1959
  969WAT     H2 3119   1.436   2.455   2.452  0.1778 -0.1522  0.4541
  970WAT      O 3120   2.062   0.310   2.824  0.1820  0.5767  0.0413
  970WAT     H1 3121   2.014   0.343   2.900  1.8919 -0.2248  1.5405
  970WAT     H2 3122   2.061   0.383   2.762 -2.7021  0.6835  0.0546
  971WAT      O 3123   1.083   4.802   3.332  0.0178 -0.8218 -0.0804
  971WAT     H1 3124   1.119   4.874   3.384  0.8656 -2.4385  1.6857
  971WAT     H2 3125   0.988   4.807   3.346  0.1573 -0.6503  0.8213
  972WAT      O 3126   3.600   2.539   1.296  0.6202 -0.0399  0.1095
  972WAT     H1 3127   3.651   2.550   1.216 -0.8786 -2.0279 -1.2486
  972WAT     H2 3128   3.611   2.446   1.318 -0.2437  0.1226  1.2905
  973WAT      O 3129   0.192   0.456   2.535 -0.3794 -0.3522  0.9886
  973WAT     H1 3130   0.217   0.539   2.575  1.5476 -1.5471  2.4278
  973WAT     H2 3131   0.254   0.445   2.463 -0.9706 -0.3138  0.4652
  974WAT      O 3132   3.916   0.186   3.205 -0.3315 -0.1703 -0.3262
  974WAT     H1 3133   3.912   0.209   3.298  0.2731 -1.8827  0.1725
  974WAT     H2 3134   3.983   0.244   3.169 -0.0852  0.0533  0.4689
  975WAT      O 3135   1.851   2.803   2.684 -0.1104 -0.2842 -0.2132
  975WAT     H1 3136   1.889   2.865   2.746  0.1870 -1.8728  1.2691
  975WAT     H2 3137   1.919   2.789   2.618  0.5217 -0.3859  0.4485
  976WAT      O 3138   4.428   1.010   3.302  1.0033 -0.4112  0.1704
  976WAT     H1 3139   4.372   0.933   3.290 -0.0905  0.3100  0.5091
  976WAT     H2 3140   4.481   0.989   3.379 -0.4424 -0.2074  1.2824
  977WAT      O 3141   4.598   5.570   1.619  0.4170 -0.6192  0.2483
  977WAT     H1 3142   4.602   5.661   1.590  1.2013 -0.9314 -0.6842
  977WAT     H2 3143   4.601   5.574   1.714 -3.3989  0.5276  0.4617
  978WAT      O 3144   1.564   1.755   3.556  0.1044  0.4773  0.2631
  978WAT     H1 3145   1.528   1.736   3.469 -0.1818 -2.0389  0.8406
  978WAT     H2 3146   1.506   1.822   3.592 -0.8347  0.2855 -0.8331
  979WAT      O 3147   1.066   4.913   3.024  0.0108  0.1364  0.0465
  979WAT     H1 3148   1.074   4.818   3.030 -1.0038  0.0884  1.0338
  979WAT     H2 3149   1.083   4.933   2.932  0.3020 -0.9890 -0.1578
  980WAT      O 3150   2.655   0.211   1.710  0.3024  0.2829 -0.2109
  980WAT     H1 3151   2.650   0.226   1.804  0.6518 -0.2128 -0.1093
  980WAT     H2 3152   2.736   0.254   1.683  1.5504 -1.6742  0.1571
  981WAT      O 3153   2.300   5.309   1.231  0.1444 -0.2789  0.7061
  981WAT     H1 3154   2.390   5.335   1.252  0.6174 -1.3804  0.0909
  981WAT     H2 3155   2.286   5.344   1.143  0.5919 -1.5857  0.0975
  982WAT      O 3156  -0.013   0.523   2.035  0.3508 -0.6039 -0.3695
  982WAT     H1 3157  -0.010   0.570   1.952  1.1651 -0.8888 -0.5037
  982WAT     H2 3158   0.036   0.443   2.020  2.0605  0.1353  0.8727
  983WAT      O 3159   2.510   0.452   4.089  0.2981  0.0972  0.0692
  983WAT     H1 3160   2.503   0.359   4.109  1.0647  0.0945  0.3487
  983WAT     H2 3161   2.439   0.468   4.026  0.3448 -0.7355 -0.2108
  984WAT      O 3162   2.707   4.984   1.259  0.3305 -0.3354  0.3585
  984WAT     H1 3163   2.750   5.001   1.175  1.4402  0.9926  1.1572
  984WAT     H2 3164   2.774   4.943   1.313 -0.0910 -0.3401  0.8931
  985WAT      O 3165   4.980   2.374   4.448 -0.5141  0.4587 -0.2523
  985WAT     H1 3166   4.978   2.282   4.473 -0.9453  0.5797  0.1584
  985WAT     H2 3167   4.889   2.395   4.425 -0.6376  1.0764  0.7409
  986WAT      O 3168   4.429   5.455   1.943 -0.1207  0.1245 -0.2522
  986WAT     H1 3169   4.477   5.533   1.916 -1.8051  1.6335  0.9284
  986WAT     H2 3170   4.339   5.485   1.954 -0.9427 -2.1394 -0.3244
  987WAT      O 3171   3.497   1.120   2.770 -0.1455  0.1589  0.0922
  987WAT     H1 3172   3.570   1.059   2.767 -1.2573 -1.2222  0.0785
  987WAT     H2 3173   3.462   1.112   2.859 -0.3036  0.8084  0.0993
  988WAT      O 3174   0.312   3.628   2.785 -0.4921 -0.2249 -0.6343
  988WAT     H1 3175   0.332   3.607   2.694  1.8477  0.1083 -0.2631
  988WAT     H2 3176   0.279   3.547   2.822 -0.9318 -0.5165 -1.6328
  989WAT      O 3177   1.411   4.160   0.119 -0.1874  0.1319  0.0536
  989WAT     H1 3178   1.483   4.151   0.057  0.9908 -1.3287  1.5332
  989WAT     H2 3179   1.357   4.230   0.083  0.5632 -0.4737 -2.4684
  990WAT      O 3180   3.499   0.236   2.813 -0.2425 -0.6126  0.1782
  990WAT     H1 3181   3.549   0.252   2.894  1.4840 -0.1591 -0.9236
  990WAT     H2 3182   3.535   0.299   2.751 -2.6698  0.1686 -0.5306
  991WAT      O 3183   3.099   1.134   2.415  0.2506  0.1510  0.2684
  991WAT     H1 3184   3.060   1.203   2.469  2.9213  3.8420 -1.9823
  991WAT     H2 3185   3.151   1.083   2.476  0.1400  1.7401  1.7741
  992WAT      O 3186   4.679   1.553   3.454  0.1903  0.1992 -0.0306
  992WAT     H1 3187   4.703   1.503   3.376  2.1718 -0.0170  0.6873
  992WAT     H2 3188   4.747   1.620   3.462  0.3352 -0.1322  1.8254
  993WAT      O 3189   3.351   4.092   3.176 -0.2820 -0.2041  0.2992
  993WAT     H1 3190   3.348   4.101   3.271 -0.5829  1.4045  0.1625
  993WAT     H2 3191   3.313   4.174   3.143 -2.7345 -1.8105 -1.1935
  994WAT      O 3192   0.757   0.880   2.137  0.0645  0.0048  0.4742
  994WAT     H1 3193   0.745   0.968   2.173 -0.1448 -0.0601  0.5628
  994WAT     H2 3194   0.709   0.823   2.197  1.5708 -0.3756  1.3591
  995WAT      O 3195   2.245   5.370   2.066  0.1917  0.3267  0.3208
  995WAT     H1 3196   2.190   5.444   2.041  0.5127  0.5024  0.1295
  995WAT     H2 3197   2.289   5.399   2.146  1.9456  1.1950 -0.8829
  996WAT      O 3198   4.924   5.081   1.424  0.9601 -0.1841 -0.1287
  996WAT     H1 3199   4.832   5.081   1.397  0.1887 -1.3518  2.2838
  996WAT     H2 3200   4.944   5.173   1.441 -0.7082 -0.1411  2.0732
  997WAT      O 3201   2.443   0.065   3.088  0.3370  0.1097 -0.0885
  997WAT     H1 3202   2.482  -0.016   3.120  0.5197  0.7349  1.3406
  997WAT     H2 3203   2.490   0.084   3.007  0.3987 -1.1186 -0.3640
  998WAT      O 3204   4.647   5.394   2.088  0.5456  0.4109  0.0473
  998WAT     H1 3205   4.589   5.390   2.012  0.7730  1.5559 -0.2069
  998WAT     H2 3206   4.629   5.314   2.137 -0.6106  0.3288 -0.4845
  999WAT      O 3207   3.887   1.849   0.883  0.0692 -0.5092  0.1500
  999WAT     H1 3208   3.977   1.849   0.850  0.2463 -0.1003  0.6223
  999WAT     H2 3209   3.865   1.941   0.893 -0.1138 -0.6163  0.7910
 1000WAT      O 3210   4.507   3.501   3.962  0.0398  0.5727 -0.4082
 1000WAT     H1 3211   4.498   3.412   3.930  2.5943  0.9303 -2.5336
 1000WAT     H2 3212   4.429   3.547   3.930 -1.7904 -0.9832  1.5243
 1001WAT      O 3213   4.546   2.224   3.379 -0.1752 -0.2836  0.2074
 1001WAT     H1 3214   4.547   2.310   3.420  1.8556 -0.1930  0.0456
 1001WAT     H2 3215   4.512   2.165   3.447 -2.5948  0.7280 -0.0109
 1002WAT      O 3216   3.222   2.006   2.068 -0.0780  0.2350  0.1369
 1002WAT     H1 3217   3.314   2.011   2.094  0.0863 -1.7130  0.0672
 1002WAT     H2 3218   3.178   2.066   2.128  1.0226 -0.0576  1.2901
 1003WAT      O 3219   0.186   3.011   2.235  0.5014  0.4149  0.1408
 1003WAT     H1 3220   0.181   2.926   2.278  2.2279  0.3326  0.2320
 1003WAT     H2 3221   0.098   3.025   2.200 -0.1662 -0.8048  1.2370
 1004WAT      O 3222   3.389   4.362   2.196 -0.0680 -0.2514  0.1046
 1004WAT     H1 3223   3.444   4.368   2.117  0.0744 -2.6673 -0.0399
 1004WAT     H2 3224   3.318   4.424   2.180  0.6145  0.2014 -1.3770
 1005WAT      O 3225   3.458   5.562   1.723  0.2454 -0.1199 -0.8972
 1005WAT     H1 3226   3.417   5.633   1.674  0.7192 -0.0918 -1.2556
 1005WAT     H2 3227   3.384   5.513   1.760 -0.0949  0.2800 -1.0398
 1006WAT      O 3228   1.753   1.150   3.763  0.0598  0.2613  0.2931
 1006WAT     H1 3229   1.789   1.211   3.828 -0.4983 -0.1145  0.9827
 1006WAT     H2 3230   1.785   1.182   3.679  0.6644  0.8644  0.7396
 1007WAT      O 3231   0.130   5.027   3.907  0.2178  0.3790 -0.2391
 1007WAT     H1 3232   0.212   4.988   3.939 -0.6525 -1.9515 -0.6452
 1007WAT     H2 3233   0.149   5.049   3.815 -0.1707 -2.2165 -1.0235
 1008WAT      O 3234   0.723   2.566   2.634  0.4554 -0.2096 -0.5645
 1008WAT     H1 3235   0.722   2.660   2.650  1.0292 -0.4040  0.8347
 1008WAT     H2 3236   0.691   2.555   2.545 -2.1308  1.1180  0.1343
 1009WAT      O 3237   2.030   3.596   3.045 -0.4040 -0.0013 -0.7102
 1009WAT     H1 3238   2.064   3.629   2.963 -0.3359  4.2262  0.7555
 1009WAT     H2 3239   1.943   3.636   3.053 -0.6604 -0.7799  1.0063
 1010WAT      O 3240   0.967   5.169   2.331  0.1205 -0.3256 -0.0686
 1010WAT     H1 3241   0.941   5.257   2.360 -0.4042 -1.0283  1.7401
 1010WAT     H2 3242   0.934   5.111   2.399  0.8274 -1.9023 -1.0172
 1011WAT      O 3243   4.862   3.977   4.285  0.0828  0.0814 -0.3609
 1011WAT     H1 3244   4.802   3.908   4.255 -0.3855  0.3491 -0.0586
 1011WAT     H2 3245   4.822   4.059   4.253  0.1226  0.2862  0.1078
 1012WAT      O 3246   2.324   2.909   1.540  0.8609 -0.1746  0.2035
 1012WAT     H1 3247   2.246   2.963   1.539  0.6915 -0.4006 -0.9826
 1012WAT     H2 3248   2.303   2.837   1.599  1.0894  1.0100  1.7882
 1013WAT      O 3249   0.764   2.624   2.129  0.6902 -0.2214  0.5899
 1013WAT     H1 3250   0.787   2.717   2.126  2.5600 -0.6788 -0.5946
 1013WAT     H2 3251   0.736   2.610   2.220  0.8224  1.3858  0.9130
 1014WAT      O 3252   4.906   1.793   1.494  0.0233 -0.6061  0.2778
 1014WAT     H1 3253   4.975   1.823   1.435 -1.9136  0.2295 -1.6842
 1014WAT     H2 3254   4.891   1.867   1.553  0.3248 -0.5525  0.2913
 1015WAT      O 3255   1.225   4.550   3.181 -0.0686 -0.1966  0.1989
 1015WAT     H1 3256   1.178   4.630   3.203  2.3519  1.9410 -1.7894
 1015WAT     H2 3257   1.166   4.502   3.123 -1.1681  0.6350  0.6046
 1016WAT      O 3258   1.244   4.686   1.604  0.1254  0.7909  0.0215
 1016WAT     H1 3259   1.236   4.612   1.664 -1.0497 -0.0725 -1.1416
 1016WAT     H2 3260   1.192   4.755   1.645  0.5256  0.6954  0.7009
 1017WAT      O 3261   3.379   2.735   2.278 -0.6814 -0.2933 -0.1921
 1017WAT     H1 3262   3.327   2.785   2.216 -0.6511  0.8393  0.6576
 1017WAT     H2 3263   3.452   2.701   2.226  0.7466  2.7214 -0.3815
 1018WAT      O 3264   1.600   3.244   1.610 -0.7011  0.0260  0.2889
 1018WAT     H1 3265   1.539   3.222   1.539 -1.2829 -0.2980  0.8865
 1018WAT     H2 3266   1.574   3.188   1.683  0.0328  0.2043  0.6987
 1019WAT      O 3267   4.086   4.568   1.208  0.2560 -0.0141  0.2222
 1019WAT     H1 3268   4.181   4.556   1.209  0.3660  0.3669 -1.6412
 1019WAT     H2 3269   4.055   4.527   1.288  2.1171  0.9707  1.4991
 1020WAT      O 3270   3.520   0.714   1.959 -0.2298  0.0437 -0.0885
 1020WAT     H1 3271   3.448   0.655   1.938  0.6664 -1.7855  1.6121
 1020WAT     H2 3272   3.599   0.663   1.938  0.5799  0.8263  0.9584
 1021WAT      O 3273   4.105   2.359   4.479 -0.3778  0.1256 -0.0056
 1021WAT     H1 3274   4.151   2.394   4.403 -0.1960 -0.5464 -0.2041
 1021WAT     H2 3275   4.123   2.265   4.478 -1.0066 -0.0081  0.4305
 1022WAT      O 3276   1.168   4.345   4.174 -0.0330  0.3191  0.3895
 1022WAT     H1 3277   1.126   4.338   4.259 -1.1987  3.1227  0.1604
 1022WAT     H2 3278   1.254   4.384   4.193 -1.2410  3.3337  0.2248
 1023WAT      O 3279   0.048   3.430   4.500 -0.0891  0.3896 -0.5472
 1023WAT     H1 3280   0.034   3.479   4.419  0.0131  0.3558 -0.5856
 1023WAT     H2 3281   0.140   3.444   4.521 -0.4869  1.7827  0.4710
 1024WAT      O 3282   0.300   1.438   2.334  0.3589 -0.3470 -0.3320
 1024WAT     H1 3283   0.292   1.497   2.409  0.1183 -0.5596 -0.1874
 1024WAT     H2 3284   0.391   1.446   2.307 -0.1926  1.9755 -1.8644
 1025WAT      O 3285   0.051   1.387   1.615 -0.4249 -0.4240 -0.2894
 1025WAT     H1 3286  -0.034   1.428   1.597 -0.2526  0.1180  0.1354
 1025WAT     H2 3287   0.064   1.327   1.541 -0.2400  0.9573 -1.4002
 1026WAT      O 3288   3.704   1.492   3.169 -0.4274 -0.0985  0.2131
 1026WAT     H1 3289   3.754   1.571   3.187  0.1862 -0.1163 -1.2789
 1026WAT     H2 3290   3.717   1.476   3.075  0.3558 -2.5845  0.6720
 1027WAT      O 3291   3.277   2.453   2.117  0.5436  0.2258  0.2246
 1027WAT     H1 3292   3.290   2.544   2.144  0.2235  0.8195 -1.5146
 1027WAT     H2 3293   3.275   2.404   2.200 -1.0614  2.0185  1.3488
 1028WAT      O 3294   0.840   4.817   3.423  0.3196 -0.2979  0.0120
 1028WAT     H1 3295   0.787   4.737   3.433 -1.1931  0.8173  1.6683
 1028WAT     H2 3296   0.865   4.840   3.513  2.4044  0.0569 -0.6082
 1029WAT      O 3297   2.223   4.931   2.427  0.1089 -0.0305 -0.5335
 1029WAT     H1 3298   2.310   4.958   2.399  0.8384  0.7660  2.2582
 1029WAT     H2 3299   2.237   4.848   2.473 -0.5665  0.2008  0.1145
 1030WAT      O 3300   1.578   2.688   3.705  0.0022  0.2941  0.2801
 1030WAT     H1 3301   1.545   2.630   3.774 -0.3448 -1.7138 -1.4748
 1030WAT     H2 3302   1.663   2.717   3.737 -0.0330 -0.8106  1.4593
 1031WAT      O 3303   0.921   1.236   1.378  0.5173 -0.4901  0.4323
 1031WAT     H1 3304   0.827   1.230   1.363  0.5552  0.6359 -0.3154
 1031WAT     H2 3305   0.956   1.154   1.342  0.1833  0.5423 -2.5175
 1032WAT      O 3306   1.451   2.524   4.427  0.3005  0.3565  0.3660
 1032WAT     H1 3307   1.484   2.435   4.418  0.6114  0.5369 -0.3187
 1032WAT     H2 3308   1.467   2.565   4.342 -1.6957  0.4436 -0.0282
 1033WAT      O 3309  -0.001   5.324   3.928  0.4265  0.5051 -0.0420
 1033WAT     H1 3310   0.033   5.251   3.978 -0.8675  0.5655  0.9571
 1033WAT     H2 3311   0.061   5.333   3.855 -0.4877 -2.9152 -1.4238
 1034WAT      O 3312   4.637   0.699   3.601 -0.1753  0.2168 -0.7317
 1034WAT     H1 3313   4.582   0.640   3.550  0.0670  0.2668 -1.0550
 1034WAT     H2 3314   4.593   0.784   3.595 -0.2397  0.1849 -0.7113
 1035WAT      O 3315   4.132   2.401   2.057 -0.2721  0.0263  0.3641
 1035WAT     H1 3316   4.039   2.387   2.072 -0.4915  1.5733  0.6007
 1035WAT     H2 3317   4.140   2.494   2.039  1.3894  0.1541  1.5520
 1036WAT      O 3318   0.484   1.812   2.359  0.2601 -0.0479  0.4428
 1036WAT     H1 3319   0.468   1.852   2.273  0.2867 -1.8062 -0.4365
 1036WAT     H2 3320   0.579   1.818   2.371  0.2193  0.5005  0.5158
 1037WAT      O 3321   3.377   2.881   1.963  0.0081 -1.0277 -0.2115
 1037WAT     H1 3322   3.372   2.808   1.901  1.6699 -0.5159 -1.0141
 1037WAT     H2 3323   3.289   2.888   2.000 -0.3590 -2.9926 -0.6147
 1038WAT      O 3324   1.110   0.654   2.562  0.3978  0.2938  0.6490
 1038WAT     H1 3325   1.191   0.644   2.512  0.3282 -0.2956  0.6497
 1038WAT     H2 3326   1.102   0.572   2.611 -0.9729 -0.2973 -0.4951
 1039WAT      O 3327   0.626   5.311   2.111 -0.5942  0.2775 -0.1503
 1039WAT     H1 3328   0.682   5.384   2.136 -0.1219  0.1196 -0.7093
 1039WAT     H2 3329   0.568   5.347   2.044 -0.3249  0.1343 -0.4655
 1040WAT      O 3330   1.470   2.847   3.002 -0.0324 -0.0047  0.0400
 1040WAT     H1 3331   1.427   2.827   2.919 -1.2637 -1.3189  0.9399
 1040WAT     H2 3332   1.560   2.818   2.991 -0.5959 -1.6933 -0.3139
 1041WAT      O 3333   0.568   5.069   1.693  0.5648  0.3752 -0.7130
 1041WAT     H1 3334   0.638   5.081   1.758  0.5945  0.0931 -0.6899
 1041WAT     H2 3335   0.497   5.028   1.742 -0.1265  1.8572 -0.4305
 1042WAT      O 3336   0.570   0.549   2.009  0.5289 -0.1409  0.2513
 1042WAT     H1 3337   0.561   0.610   2.082 -0.3513 -0.4362  0.3927
 1042WAT     H2 3338   0.629   0.594   1.947  0.1733  0.6926  0.5117
 1043WAT      O 3339   2.603   3.320   3.302 -0.0136 -0.4450  0.2757
 1043WAT     H1 3340   2.588   3.397   3.357 -0.1999  2.3487 -3.3772
 1043WAT     H2 3341   2.692   3.292   3.325  0.0093  0.7260  1.8084
 1044WAT      O 3342   0.388   3.795   2.443 -0.5227 -0.1481  0.4621
 1044WAT     H1 3343   0.417   3.707   2.418  1.0854  0.8424 -1.5298
 1044WAT     H2 3344   0.372   3.839   2.359 -1.2595  1.4858  1.4099
 1045WAT      O 3345   3.256   0.834   2.558  0.4068 -0.1629 -0.3362
 1045WAT     H1 3346   3.289   0.924   2.551  0.1798 -0.1075 -0.7334
 1045WAT     H2 3347   3.221   0.829   2.647 -1.9564  0.9848 -1.1118
 1046WAT      O 3348   1.031   1.817   1.908 -0.6933 -0.3155  0.3309
 1046WAT     H1 3349   1.045   1.748   1.973  0.9601 -0.4088 -0.0795
 1046WAT     H2 3350   1.080   1.892   1.943  2.1777 -1.0327 -1.7947
 1047WAT      O 3351   4.063   4.153   0.597  0.4454 -0.4518 -0.4885
 1047WAT     H1 3352   4.149   4.110   0.602  1.5932  1.6294 -0.8274
 1047WAT     H2 3353   4.053   4.175   0.505 -1.0864 -1.7659 -0.6752
 1048WAT      O 3354   1.716   4.380   3.936  0.6288 -0.0501 -0.2314
 1048WAT     H1 3355   1.699   4.300   3.886  0.1396 -0.4836  0.6187
 1048WAT     H2 3356   1.707   4.450   3.871 -0.3179 -0.5785 -0.6880
 1049WAT      O 3357   1.297   2.322   1.601  0.5829  0.0185 -0.2939
 1049WAT     H1 3358   1.266   2.290   1.516  0.5944  1.7769 -0.9933
 1049WAT     H2 3359   1.328   2.411   1.583  0.1583  0.5975  1.6542
 1050WAT      O 3360   2.711   5.423   2.903 -0.3347 -0.1812  0.0614
 1050WAT     H1 3361   2.707   5.343   2.851  1.6042  0.2944 -0.9222
 1050WAT     H2 3362   2.788   5.411   2.959  0.6069  1.3704 -0.8236
 1051WAT      O 3363   4.545   1.421   2.879 -0.2034  0.3774 -0.6721
 1051WAT     H1 3364   4.608   1.481   2.838 -1.1314  0.7784 -1.5659
 1051WAT     H2 3365   4.530   1.353   2.813  2.0402 -1.8204  0.9076
 1052WAT      O 3366   4.598   0.100   2.502  0.2896 -0.2406  0.6486
 1052WAT     H1 3367   4.581   0.029   2.440 -1.0683 -0.2739  1.0083
 1052WAT     H2 3368   4.516   0.108   2.552  0.2486  1.8163  0.3692
 1053WAT      O 3369   4.150   2.924   3.569 -0.3864 -0.1732  1.0488
 1053WAT     H1 3370   4.212   2.903   3.499 -0.7058 -0.4233  0.8426
 1053WAT     H2 3371   4.140   3.019   3.564 -1.2473 -0.3038  0.0495
 1054WAT      O 3372   4.088   0.594   1.912  0.4911  0.0451 -0.2257
 1054WAT     H1 3373   4.038   0.512   1.915 -0.1947  0.4777  0.3644
 1054WAT     H2 3374   4.133   0.597   1.996  0.6668  0.1892 -0.3237
 1055WAT      O 3375   4.138   1.600   0.662  0.3956 -0.3541  0.2301
 1055WAT     H1 3376   4.130   1.679   0.716 -3.9145 -0.3967 -0.0493
 1055WAT     H2 3377   4.156   1.633   0.574  1.7427  0.0376  0.6199
 1056WAT      O 3378   2.061   1.424   1.191 -0.1992 -0.2655  0.4512
 1056WAT     H1 3379   2.028   1.380   1.113  0.8302 -1.8888  0.8716
 1056WAT     H2 3380   1.989   1.480   1.220 -0.3231  0.9862 -2.0641
 1057WAT      O 3381   1.152   0.378   1.641 -0.2376  0.0203  0.0650
 1057WAT     H1 3382   1.122   0.433   1.569 -0.1328 -0.1156 -0.0814
 1057WAT     H2 3383   1.118   0.421   1.720 -1.3602 -0.4765 -0.1360
 1058WAT      O 3384   2.151   3.029   4.559 -0.0842  0.3579 -1.1015
 1058WAT     H1 3385   2.104   2.977   4.625  2.2419  0.6429  0.9300
 1058WAT     H2 3386   2.082   3.072   4.509 -1.9993 -0.6657  0.5045
 1059WAT      O 3387   1.868   1.130   0.764  0.2768 -0.1417  0.1712
 1059WAT     H1 3388   1.890   1.121   0.857 -1.5856 -0.1015  0.6515
 1059WAT     H2 3389   1.773   1.137   0.762  0.0726 -2.1090 -1.8833
 1060WAT      O 3390   2.869   2.654   1.534 -0.2216 -0.3251 -0.0564
 1060WAT     H1 3391   2.877   2.561   1.513 -0.8021 -0.2733 -0.5097
 1060WAT     H2 3392   2.861   2.698   1.449  0.2081  0.1624  0.1434
 1061WAT      O 3393   4.666   1.504   3.742 -0.5199 -0.0604  0.2651
 1061WAT     H1 3394   4.644   1.509   3.649  2.0119 -2.1091 -0.5889
 1061WAT     H2 3395   4.738   1.566   3.753  0.4654 -1.1862  0.3601
 1062WAT      O 3396   4.867   2.986   3.471 -0.1194 -0.1399  0.2837
 1062WAT     H1 3397   4.852   2.919   3.537  1.9860 -1.1215 -0.1375
 1062WAT     H2 3398   4.934   3.043   3.510  0.4242 -0.1651 -0.5846
 1063WAT      O 3399   0.422   0.933   3.661  0.1140  0.5283 -0.3905
 1063WAT     H1 3400   0.383   0.862   3.711  0.9522 -0.0825 -0.5790
 1063WAT     H2 3401   0.355   1.002   3.659 -0.6117 -0.1603 -0.0049
 1064WAT      O 3402   3.813   2.848   2.288 -0.4386 -0.0930 -0.8383
 1064WAT     H1 3403   3.740   2.810   2.336  0.7589 -0.0220  1.1669
 1064WAT     H2 3404   3.861   2.773   2.254 -0.0422 -0.2546  0.0559
 1065WAT      O 3405   0.043   0.995   1.562  0.6152 -0.1533  0.0696
 1065WAT     H1 3406   0.115   1.035   1.610 -0.4116  0.4178  1.1781
 1065WAT     H2 3407   0.060   1.018   1.470  0.9227  1.5055  0.4954
 1066WAT      O 3408   0.791   2.561   3.278  0.1630 -0.2103  0.5651
 1066WAT     H1 3409   0.853   2.490   3.262 -1.9386 -2.0922  0.2755
 1066WAT     H2 3410   0.771   2.554   3.371 -1.0917 -0.9556  0.2625
 1067WAT      O 3411   3.662   1.688   0.905 -0.2953  0.3673 -0.2730
 1067WAT     H1 3412   3.751   1.716   0.886  0.6353 -0.3467  2.5355
 1067WAT     H2 3413   3.630   1.751   0.969 -1.5913  0.2215 -0.7385
 1068WAT      O 3414   0.937   4.811   4.159 -0.2645 -0.1121  0.2416
 1068WAT     H1 3415   0.905   4.770   4.079  0.6857 -0.3951 -0.0111
 1068WAT     H2 3416   0.874   4.785   4.226  0.2001 -1.8522  0.0468
 1069WAT      O 3417   0.192   1.479   0.279  0.0511 -0.0526 -0.1863
 1069WAT     H1 3418   0.115   1.426   0.257  1.0182 -1.5346 -0.1333
 1069WAT     H2 3419   0.206   1.464   0.372 -0.3379  1.2508  0.1061
 1070WAT      O 3420   2.667   4.874   2.119 -0.2165  0.1688 -0.2612
 1070WAT     H1 3421   2.689   4.799   2.064  0.5631  1.0152 -1.1385
 1070WAT     H2 3422   2.627   4.937   2.059 -2.5235 -0.1831  0.7650
 1071WAT      O 3423   0.737   1.878   3.539  0.3743 -0.6422 -0.2589
 1071WAT     H1 3424   0.761   1.835   3.622  1.1826  0.2333 -0.0183
 1071WAT     H2 3425   0.742   1.972   3.559 -1.2661 -0.4090 -0.7998
 1072WAT      O 3426   0.256   0.785   1.941 -0.6789  0.0257  0.0309
 1072WAT     H1 3427   0.217   0.853   1.995 -0.8213  0.1163 -0.1834
 1072WAT     H2 3428   0.243   0.704   1.990 -1.2657  0.0349 -0.1013
 1073WAT      O 3429   3.542   3.577   5.785  0.2682 -0.2159  0.0465
 1073WAT     H1 3430   3.497   3.508   5.736  0.8603 -0.0576 -0.7221
 1073WAT     H2 3431   3.485   3.653   5.778 -1.8204 -1.2677  3.2023
 1074WAT      O 3432   2.198   1.831   3.025 -0.0330  0.2197 -0.2288
 1074WAT     H1 3433   2.290   1.849   3.045 -0.3452  0.4666  1.0871
 1074WAT     H2 3434   2.185   1.867   2.937  0.5016  2.4963  0.5531
 1075WAT      O 3435   2.935   4.371   2.430 -0.0559  0.3319 -0.2645
 1075WAT     H1 3436   2.922   4.297   2.371 -2.0062 -0.3833  0.9892
 1075WAT     H2 3437   3.010   4.346   2.484  0.5132  0.1482 -1.1163
 1076WAT      O 3438   2.447   4.303   2.467 -0.3070 -0.0741 -0.5466
 1076WAT     H1 3439   2.459   4.241   2.540  0.2643 -0.2631 -0.7992
 1076WAT     H2 3440   2.353   4.320   2.466 -0.4459 -0.7795 -0.3388
 1077WAT      O 3441   1.232   4.723   3.681 -0.2289  0.6475  0.3239
 1077WAT     H1 3442   1.147   4.687   3.705 -0.4018  0.2838 -0.7544
 1077WAT     H2 3443   1.266   4.662   3.616  1.4739  0.0637  1.6982
 1078WAT      O 3444   0.530   2.566   4.454  0.2122 -0.1519  0.0624
 1078WAT     H1 3445   0.444   2.571   4.413  0.4458 -0.4782 -0.4839
 1078WAT     H2 3446   0.592   2.574   4.381  0.6690  1.3888  0.5883
 1079WAT      O 3447   2.306   0.668   1.701 -0.3757 -0.3846 -0.4228
 1079WAT     H1 3448   2.328   0.581   1.733 -2.0159 -0.6663  0.0343
 1079WAT     H2 3449   2.365   0.727   1.748  1.1596 -1.2617 -1.1785
 1080WAT      O 3450   3.746   2.001   3.417  0.6481 -0.5501 -0.4523
 1080WAT     H1 3451   3.697   1.980   3.497  3.1342  2.7511  2.2848
 1080WAT     H2 3452   3.696   2.072   3.377  1.1901  0.2344  0.2293
 1081WAT      O 3453   2.681   1.173   1.953  0.3062 -0.3197 -0.1773
 1081WAT     H1 3454   2.621   1.105   1.922  0.8439  0.1146 -2.3799
 1081WAT     H2 3455   2.722   1.136   2.031 -0.2555 -2.0400 -0.6598
 1082WAT      O 3456   0.605   4.098   0.535  0.0052  0.4353 -0.4069
 1082WAT     H1 3457   0.646   4.052   0.461 -1.8847 -2.6365  0.2691
 1082WAT     H2 3458   0.512   4.102   0.511 -0.7274 -1.0090  1.8472
 1083WAT      O 3459   0.207   1.586   1.714  0.3086 -0.2691 -0.0101
 1083WAT     H1 3460   0.158   1.505   1.700 -1.1736  0.8181 -1.4595
 1083WAT     H2 3461   0.193   1.607   1.806 -2.8127  0.4603 -0.5453
 1084WAT      O 3462   3.411   1.377   0.659 -0.7475 -0.6029 -0.0727
 1084WAT     H1 3463   3.342   1.316   0.633  0.1955 -2.3428  1.2286
 1084WAT     H2 3464   3.478   1.321   0.700  1.1295  1.0838 -0.6508
 1085WAT      O 3465   0.465   0.256   2.680  0.1226 -0.3291  0.2802
 1085WAT     H1 3466   0.382   0.287   2.715 -0.8875  0.2212 -2.4014
 1085WAT     H2 3467   0.531   0.304   2.730 -1.1550  0.0667  1.6758
 1086WAT      O 3468   4.129   1.956   1.918  0.1314 -0.0658  0.2289
 1086WAT     H1 3469   4.161   1.986   1.833  0.2858  0.6830  0.5394
 1086WAT     H2 3470   4.041   1.993   1.924  1.1604  2.4133  1.6102
 1087WAT      O 3471   1.930   1.569   3.465 -0.1853 -0.1364 -0.2130
 1087WAT     H1 3472   1.951   1.657   3.435 -2.0645  0.1322 -0.8840
 1087WAT     H2 3473   1.916   1.519   3.385 -2.1916 -0.2136  0.1186
 1088WAT      O 3474   2.299   5.558   4.329  0.0204  0.2533 -0.0703
 1088WAT     H1 3475   2.376   5.582   4.277  1.6725 -2.4547  0.9098
 1088WAT     H2 3476   2.333   5.546   4.418 -1.9467  0.8208  0.8068
 1089WAT      O 3477   3.504   2.864   5.255  0.1590  0.3903 -0.4313
 1089WAT     H1 3478   3.555   2.788   5.226 -0.3312 -0.1549  0.1243
 1089WAT     H2 3479   3.424   2.827   5.291 -0.9124  1.2651 -1.8099
 1090WAT      O 3480   2.655   5.016   1.850  0.3563 -0.3111 -0.3886
 1090WAT     H1 3481   2.676   5.067   1.772  0.6614  0.5039  0.2123
 1090WAT     H2 3482   2.729   4.956   1.859  1.7076  1.4056  0.7583
 1091WAT      O 3483   4.773   0.969   4.239 -0.4048  0.0613 -0.3084
 1091WAT     H1 3484   4.714   0.896   4.254 -0.0057 -0.1332  0.3819
 1091WAT     H2 3485   4.815   0.949   4.155 -0.9675 -0.0325 -0.5693
 1092WAT      O 3486   3.600   5.591   4.164  0.6084 -0.5133 -0.5365
 1092WAT     H1 3487   3.684   5.632   4.142 -0.4920  0.9013 -2.5033
 1092WAT     H2 3488   3.580   5.624   4.252  1.5098  0.1959 -0.5733
 1093WAT      O 3489   0.164   4.897   3.283  0.0401 -0.8450 -0.0337
 1093WAT     H1 3490   0.238   4.955   3.299 -0.1597  0.0473 -2.0592
 1093WAT     H2 3491   0.109   4.906   3.361  0.9414  0.2275  0.5008
 1094WAT      O 3492   1.908   0.285   3.699  0.5757  0.5898  0.3233
 1094WAT     H1 3493   1.887   0.273   3.606 -2.5587 -1.0846  1.0834
 1094WAT     H2 3494   1.868   0.368   3.722 -0.8147 -0.1214  0.6171
 1095WAT      O 3495   4.204   4.665   3.947  0.6688  0.0649 -0.1232
 1095WAT     H1 3496   4.217   4.605   4.020  0.7169  0.0123 -0.1750
 1095WAT     H2 3497   4.127   4.633   3.902 -0.0573  0.7753  0.5790
 1096WAT      O 3498   0.215   1.395   3.520 -0.3197 -0.1355 -0.5762
 1096WAT     H1 3499   0.249   1.306   3.518  0.7647  0.2208  0.5733
 1096WAT     H2 3500   0.293   1.450   3.503 -1.2640  0.5767 -3.2091
 1097WAT      O 3501   0.438   3.042   1.446  0.2062 -0.1650  0.0891
 1097WAT     H1 3502   0.393   3.082   1.521  0.3298  0.6969 -0.2801
 1097WAT     H2 3503   0.530   3.039   1.473  0.1210 -0.6918  0.3234
 1098WAT      O 3504   0.807   3.184   3.272  0.0108 -0.4142  0.1556
 1098WAT     H1 3505   0.759   3.156   3.350  1.8829 -0.6893  1.2951
 1098WAT     H2 3506   0.814   3.104   3.219  0.1803 -0.6651  0.5442
 1099WAT      O 3507   3.804   2.784   4.625  0.5586  0.6321 -0.4843
 1099WAT     H1 3508   3.738   2.777   4.556  0.7728 -0.2666 -0.6073
 1099WAT     H2 3509   3.871   2.720   4.601  1.7603  1.9117 -0.6525
 1100WAT      O 3510   1.576   4.195   0.574  0.1782  0.1362 -0.3774
 1100WAT     H1 3511   1.614   4.242   0.649 -0.0595 -0.4161  0.0926
 1100WAT     H2 3512   1.649   4.146   0.537  0.6432  1.5606 -1.4280
 1101WAT      O 3513   1.096   1.348   1.599 -0.8239  0.2777  0.2100
 1101WAT     H1 3514   1.157   1.281   1.632 -1.3892 -0.0465  0.6142
 1101WAT     H2 3515   1.020   1.298   1.570 -1.0673  0.7166  0.0897
 1102WAT      O 3516   0.501   1.072   3.432  0.1157  0.0924  0.4153
 1102WAT     H1 3517   0.506   1.028   3.516 -1.9920  0.4645  0.7934
 1102WAT     H2 3518   0.408   1.068   3.408  0.5917  0.3500 -1.7039
 1103WAT      O 3519   4.539   2.343   0.863 -0.0523 -0.8051  0.6622
 1103WAT     H1 3520   4.619   2.366   0.910 -0.6905  1.3488  0.8022
 1103WAT     H2 3521   4.469   2.361   0.925 -0.7405 -0.8879 -0.0769
 1104WAT      O 3522   4.345   3.601   3.197  0.2443  0.1695  0.2188
 1104WAT     H1 3523   4.359   3.650   3.117  1.1393  1.4969  1.1466
 1104WAT     H2 3524   4.425   3.614   3.248  0.0488 -1.3488  0.9752
 1105WAT      O 3525   0.083   1.859   1.302 -0.3756 -0.7361 -0.0678
 1105WAT     H1 3526   0.169   1.900   1.295 -0.8605  0.2305 -0.5917
 1105WAT     H2 3527   0.060   1.837   1.212  0.4034 -3.3590  0.3004
 1106WAT      O 3528   3.203   2.142   1.807  0.0390 -0.0565 -0.0795
 1106WAT     H1 3529   3.218   2.107   1.895 -0.9269  0.3861  0.2768
 1106WAT     H2 3530   3.167   2.068   1.758 -0.9036  0.1130  0.3444
 1107WAT      O 3531   1.214   2.168   4.709  0.6293  0.0238 -0.3259
 1107WAT     H1 3532   1.283   2.226   4.678  1.2116 -0.8452 -0.6653
 1107WAT     H2 3533   1.151   2.166   4.637  0.7697 -0.0318 -0.4473
 1108WAT      O 3534   1.636   1.699   1.211 -0.1310 -0.3586 -0.0135
 1108WAT     H1 3535   1.580   1.767   1.249 -0.5836 -0.5515 -0.3320
 1108WAT     H2 3536   1.593   1.675   1.129  0.4588 -0.4558 -0.3035
 1109WAT      O 3537   1.777   3.427   1.353  0.3670 -0.2632 -0.5333
 1109WAT     H1 3538   1.702   3.387   1.309  1.4200 -0.7800 -1.9064
 1109WAT     H2 3539   1.851   3.372   1.329  1.6687  1.7997 -1.4930
 1110WAT      O 3540   3.724   2.393   0.890 -0.0961 -0.3353 -1.5554
 1110WAT     H1 3541   3.737   2.304   0.923  0.7918 -0.3884 -2.0260
 1110WAT     H2 3542   3.737   2.385   0.795 -1.4863  0.0276 -1.8011
 1111WAT      O 3543   3.487   2.460   2.493 -0.5503  0.2962 -0.2713
 1111WAT     H1 3544   3.450   2.414   2.417  0.2626  0.0349 -0.5192
 1111WAT     H2 3545   3.411   2.482   2.547 -0.9867 -1.2544 -0.1959
 1112WAT      O 3546   2.581   2.323   1.231  0.8663 -0.4861 -0.1825
 1112WAT     H1 3547   2.619   2.241   1.261  3.9650  0.2304 -1.7209
 1112WAT     H2 3548   2.604   2.328   1.138 -0.2058  1.6066 -0.4011
 1113WAT      O 3549   3.082   3.722   4.586 -0.1769  0.4717 -0.4283
 1113WAT     H1 3550   3.107   3.812   4.562 -0.1928  0.5188 -0.2711
 1113WAT     H2 3551   3.137   3.667   4.531 -0.7612  0.5802 -1.1307
 1114WAT      O 3552   1.888   1.245   0.360  0.1312 -0.6095 -0.2988
 1114WAT     H1 3553   1.857   1.155   0.347 -1.5568  0.1029 -1.5846
 1114WAT     H2 3554   1.844   1.296   0.292  1.2979  1.1570  0.1939
 1115WAT      O 3555   3.727   1.928   0.115  0.1703  0.3060  0.0144
 1115WAT     H1 3556   3.763   2.014   0.091 -2.6093  1.4960 -0.2544
 1115WAT     H2 3557   3.638   1.946   0.143 -0.6738 -2.5701 -0.4572
 1116WAT      O 3558   2.059   1.491   0.083 -0.3171 -0.2234 -0.4348
 1116WAT     H1 3559   1.996   1.442   0.030  0.4066 -0.6730 -0.8972
 1116WAT     H2 3560   2.144   1.467   0.047  0.2140 -0.7736  1.1347
 1117WAT      O 3561   3.817   4.049   2.485 -0.0710 -0.5802  0.0624
 1117WAT     H1 3562   3.863   4.111   2.542 -0.9175  0.4233 -0.3066
 1117WAT     H2 3563   3.781   3.984   2.546  1.4807 -1.1745  0.3849
 1118WAT      O 3564   1.474   1.206   1.360 -0.1544  1.2872  0.2298
 1118WAT     H1 3565   1.460   1.122   1.405 -0.2053  0.6201 -0.9678
 1118WAT     H2 3566   1.565   1.229   1.378  0.3314  0.1770 -0.6556
 1119WAT      O 3567   4.316   0.778   3.237  0.2864  0.4504  0.2047
 1119WAT     H1 3568   4.362   0.740   3.162  1.0318 -0.1974  0.9559
 1119WAT     H2 3569   4.289   0.702   3.289 -1.8222  0.8082 -0.2850
 1120WAT      O 3570   3.981   0.187   2.111 -0.7253  0.6574  0.0557
 1120WAT     H1 3571   3.983   0.100   2.071  1.0378  0.8469 -0.3461
 1120WAT     H2 3572   3.934   0.173   2.194  0.0247 -0.8198  0.2769
 1121WAT      O 3573   3.072   1.640   1.603  0.3800 -0.0161  0.3614
 1121WAT     H1 3574   3.043   1.626   1.693 -0.1107  1.0365  0.3767
 1121WAT     H2 3575   3.070   1.552   1.564  0.7339 -0.5059  1.4000
 1122WAT      O 3576   4.168   1.662   1.524 -0.5615  0.0094 -0.3036
 1122WAT     H1 3577   4.120   1.676   1.605 -1.3225 -0.3598 -0.6821
 1122WAT     H2 3578   4.246   1.717   1.533 -1.3587  1.1147  0.0520
 1123WAT      O 3579   2.984   3.448   0.557  0.1729  0.3889 -0.3630
 1123WAT     H1 3580   3.024   3.489   0.481  1.5554 -0.6753 -0.2612
 1123WAT     H2 3581   2.897   3.486   0.562  0.7464  1.9324 -1.3055
 1124WAT      O 3582   3.850   2.107   0.992 -0.0026  0.4766 -0.4136
 1124WAT     H1 3583   3.864   2.169   1.064 -1.7044 -0.1697  0.5353
 1124WAT     H2 3584   3.932   2.110   0.942  0.6789  2.0452  0.6891
 1125WAT      O 3585   3.344   0.023   2.785 -0.6486 -0.3810  0.0841
 1125WAT     H1 3586   3.403   0.098   2.777 -2.3562  1.0527  0.4177
 1125WAT     H2 3587   3.345   0.001   2.878 -0.0595 -0.8813 -0.0309
 1126WAT      O 3588   0.701   2.591   4.250 -0.4456  0.1765 -0.4674
 1126WAT     H1 3589   0.742   2.521   4.201  1.1812 -0.8539  2.1379
 1126WAT     H2 3590   0.698   2.665   4.190 -0.5951 -1.5880 -2.7378
 1127WAT      O 3591   4.581   1.721   1.072  0.2169  0.6636 -0.6074
 1127WAT     H1 3592   4.555   1.750   1.160 -0.1694 -0.6311 -0.2729
 1127WAT     H2 3593   4.627   1.796   1.035  0.7160  1.1074  0.8424
 1128WAT      O 3594   0.040   2.646   2.736 -0.3042  0.1606  0.0287
 1128WAT     H1 3595  -0.020   2.576   2.763  0.6933 -0.2373  1.3084
 1128WAT     H2 3596   0.127   2.605   2.737  0.2825  1.3522  0.6060
 1129WAT      O 3597   4.510   0.428   3.209 -0.0470 -0.4058  0.4288
 1129WAT     H1 3598   4.566   0.355   3.237 -1.7442 -2.0398 -0.2381
 1129WAT     H2 3599   4.439   0.429   3.273 -0.1404  0.5896  0.3298
 1130WAT      O 3600   1.445   1.715   2.942 -0.0191  0.0686 -0.1653
 1130WAT     H1 3601   1.477   1.680   2.858 -0.5920 -1.5574  0.2502
 1130WAT     H2 3602   1.512   1.687   3.006  0.8606  2.0313 -0.1562
 1131WAT      O 3603   4.053   1.634   2.637 -0.0554  0.4506 -0.0204
 1131WAT     H1 3604   4.148   1.629   2.641  0.0076  0.7056 -0.9991
 1131WAT     H2 3605   4.028   1.572   2.569 -0.8518 -1.9353  2.2803
 1132WAT      O 3606   4.152   4.014   4.463  0.0926 -0.2550 -0.0105
 1132WAT     H1 3607   4.132   4.018   4.556 -1.1900  0.8680 -0.3124
 1132WAT     H2 3608   4.248   4.017   4.459  0.4846 -4.4989  1.4076
 1133WAT      O 3609   2.870   2.163   0.836  0.0111  0.3087  0.7083
 1133WAT     H1 3610   2.931   2.218   0.886  0.5626 -0.8163  1.3109
 1133WAT     H2 3611   2.910   2.076   0.838 -0.1761  0.1349 -1.3417
 1134WAT      O 3612   1.814   2.022   1.339  0.0598 -0.5456  0.1229
 1134WAT     H1 3613   1.720   2.035   1.345 -0.1246 -1.8080  0.4030
 1134WAT     H2 3614   1.841   2.002   1.428  0.2290 -2.2184 -0.2694
 1135WAT      O 3615   3.000   1.755   4.982 -0.1785  0.1660  0.1558
 1135WAT     H1 3616   2.932   1.746   5.049 -0.1062 -0.3656  0.1616
 1135WAT     H2 3617   3.050   1.674   4.987  1.1539  0.9882  0.9022
 1136WAT      O 3618   3.969   2.993   0.977 -0.3512 -0.2505  0.5085
 1136WAT     H1 3619   3.895   3.049   0.951 -0.2488 -0.5114 -0.3932
 1136WAT     H2 3620   4.045   3.033   0.934 -0.0431 -0.2770  1.0166
 1137WAT      O 3621   0.085   1.457   3.185 -0.1710 -0.5739 -0.1202
 1137WAT     H1 3622   0.098   1.545   3.220  0.1039 -0.8592  0.5211
 1137WAT     H2 3623  -0.000   1.461   3.142 -1.4797 -0.6911  2.2603
 1138WAT      O 3624   3.413   3.459   2.294  0.0317 -0.0547  0.3453
 1138WAT     H1 3625   3.343   3.420   2.347  0.2542 -0.4892  0.3175
 1138WAT     H2 3626   3.399   3.424   2.206 -0.4078  0.7575  0.0791
 1139WAT      O 3627   3.696   1.693   3.982 -0.0023  0.2724 -0.5352
 1139WAT     H1 3628   3.702   1.689   4.077 -0.3360 -0.1919 -0.5297
 1139WAT     H2 3629   3.786   1.677   3.952  0.2413  1.1454 -0.2902
 1140WAT      O 3630   3.191   1.420   1.415  0.4547  0.2216 -0.0026
 1140WAT     H1 3631   3.148   1.388   1.494  0.2009  1.4454  0.3688
 1140WAT     H2 3632   3.166   1.357   1.347 -1.3191  0.4809  0.3696
 1141WAT      O 3633   3.386   2.016   4.945  0.3359 -0.3647 -0.2952
 1141WAT     H1 3634   3.414   1.952   5.010  0.9571  0.3810  0.1865
 1141WAT     H2 3635   3.293   2.030   4.963 -0.0258 -1.7483 -0.9490
 1142WAT      O 3636   4.577   4.339   3.053 -0.2617 -0.5443 -0.5344
 1142WAT     H1 3637   4.597   4.253   3.014  0.6957  0.2564 -1.8989
 1142WAT     H2 3638   4.616   4.335   3.141  1.3856 -0.8947 -1.2455
 1143WAT      O 3639   3.786   0.257   2.367  0.3983  0.2111 -0.3443
 1143WAT     H1 3640   3.777   0.350   2.387 -0.1641 -0.3496  2.4868
 1143WAT     H2 3641   3.700   0.232   2.335 -1.1280 -0.1657  3.4636
 1144WAT      O 3642   1.880   5.504   2.138 -0.1246 -0.4326  0.2611
 1144WAT     H1 3643   1.869   5.418   2.179  0.5251 -0.7677 -0.2516
 1144WAT     H2 3644   1.861   5.566   2.208  1.8134 -0.9889  1.3573
 1145WAT      O 3645   1.997   2.147   0.188  0.3408  0.3221 -0.4598
 1145WAT     H1 3646   2.073   2.110   0.232  0.5933 -0.3882 -1.4483
 1145WAT     H2 3647   2.025   2.157   0.097 -1.0432 -0.8823 -1.0609
 1146WAT      O 3648   2.218   1.085   0.910  0.0195 -0.4844  0.2916
 1146WAT     H1 3649   2.177   1.013   0.958 -1.2625 -0.8903 -1.3170
 1146WAT     H2 3650   2.144   1.139   0.882  0.9168  1.1308  0.9024
 1147WAT      O 3651   1.379   4.722   3.370  0.6415 -0.6023 -0.0069
 1147WAT     H1 3652   1.351   4.649   3.425 -0.2099  1.8506  3.1233
 1147WAT     H2 3653   1.299   4.748   3.324  0.8073 -1.2089 -0.6626
 1148WAT      O 3654   0.677   5.610   2.095 -0.3760 -0.7176 -0.1224
 1148WAT     H1 3655   0.755   5.663   2.113  0.1755 -0.8279 -1.9709
 1148WAT     H2 3656   0.613   5.640   2.160  0.3148  1.3405 -0.3026
 1149WAT      O 3657   1.993   2.264   1.868  0.1061  0.0150  0.1356
 1149WAT     H1 3658   1.996   2.203   1.942  1.1297 -0.8598 -0.5896
 1149WAT     H2 3659   2.033   2.344   1.902  1.8544 -0.8276  0.1731
 1150WAT      O 3660   0.957   4.567   3.709  0.0582 -0.5051  0.1326
 1150WAT     H1 3661   0.981   4.507   3.638  0.0875 -2.5193  1.7227
 1150WAT     H2 3662   0.864   4.551   3.724  0.0834 -0.2144  0.6297
 1151WAT      O 3663   0.406   4.079   2.761  0.0258 -0.3990  0.1561
 1151WAT     H1 3664   0.485   4.111   2.804 -0.2715  0.7538 -0.1063
 1151WAT     H2 3665   0.337   4.092   2.826  0.0911 -1.7789  0.5363
 1152WAT      O 3666   2.425   5.046   2.284 -0.5511 -0.3395  0.1144
 1152WAT     H1 3667   2.409   5.123   2.339 -1.0939 -0.9126  0.7755
 1152WAT     H2 3668   2.516   5.022   2.302 -0.6378 -0.3496  0.5347
 1153WAT      O 3669   3.501   3.165   1.915 -0.3956 -0.0971  0.2199
 1153WAT     H1 3670   3.581   3.151   1.966 -1.0373 -1.1436  0.9654
 1153WAT     H2 3671   3.456   3.081   1.917 -2.4597  0.9528  1.4659
 1154WAT      O 3672   4.803   1.539   1.543 -0.1987  0.2382 -0.1684
 1154WAT     H1 3673   4.835   1.625   1.516 -2.3395  2.0609  2.5631
 1154WAT     H2 3674   4.730   1.521   1.483 -1.2823  1.5245  0.7243
 1155WAT      O 3675   3.807   1.471   2.400  0.3875 -0.3583 -0.1284
 1155WAT     H1 3676   3.741   1.451   2.333  1.2843 -1.2504 -0.7600
 1155WAT     H2 3677   3.799   1.399   2.463 -0.8297  0.7577  1.0621
 1156WAT      O 3678   1.451   0.153   3.040  0.0104  0.1112 -0.7234
 1156WAT     H1 3679   1.507   0.146   2.963 -2.2526 -0.0895 -2.4784
 1156WAT     H2 3680   1.429   0.063   3.062 -0.6661  0.2185 -0.9191
 1157WAT      O 3681   2.316   4.899   2.071 -0.5598 -0.5789  0.1853
 1157WAT     H1 3682   2.363   4.841   2.131 -0.5189 -1.4707 -0.6870
 1157WAT     H2 3683   2.338   4.987   2.101  1.8992 -0.9397 -0.3542
 1158WAT      O 3684   2.525   1.256   2.888 -0.4065  0.9687  0.1907
 1158WAT     H1 3685   2.598   1.263   2.949 -0.9655  1.0821  0.8611
 1158WAT     H2 3686   2.551   1.310   2.813  0.2577  0.8847  0.3568
 1159WAT      O 3687   4.466   2.356   4.104  0.4839 -0.4912  0.1529
 1159WAT     H1 3688   4.456   2.374   4.197  1.9868 -2.6596  0.8073
 1159WAT     H2 3689   4.544   2.301   4.098  0.0462 -0.9703 -2.3271
 1160WAT      O 3690   3.414   0.885   1.090 -0.3480  0.3513 -0.8455
 1160WAT     H1 3691   3.323   0.898   1.115 -0.3190 -0.4966 -0.2701
 1160WAT     H2 3692   3.448   0.974   1.077 -0.5668  0.8526  1.4862
 1161WAT      O 3693   1.184   4.222   1.221 -0.5947 -0.1033  0.0810
 1161WAT     H1 3694   1.194   4.240   1.314 -1.3132  0.3763  0.0759
 1161WAT     H2 3695   1.213   4.132   1.210  1.1269  0.3791  0.4637
 1162WAT      O 3696   1.700   4.993   1.925 -0.3979 -0.1350 -0.1598
 1162WAT     H1 3697   1.624   4.939   1.946  1.1122 -1.5090  2.2282
 1162WAT     H2 3698   1.727   4.963   1.838 -0.7610 -1.9142  0.2988
 1163WAT      O 3699   3.591   2.763   2.450  0.1154  0.2649 -0.2367
 1163WAT     H1 3700   3.623   2.673   2.452  2.0485  0.8799 -0.7121
 1163WAT     H2 3701   3.502   2.756   2.416  1.0000 -1.2981 -2.5661
 1164WAT      O 3702   3.423   1.697   3.928  0.2728 -0.0330 -0.0424
 1164WAT     H1 3703   3.371   1.745   3.992  0.6260  2.1867 -1.3051
 1164WAT     H2 3704   3.512   1.700   3.963  0.6175  1.9290 -0.9575
 1165WAT      O 3705   1.057   0.317   3.430  0.1377 -0.0127  0.4271
 1165WAT     H1 3706   1.001   0.395   3.441 -0.3833  0.2581 -3.0601
 1165WAT     H2 3707   1.032   0.260   3.502 -3.2163  0.9789  0.2299
 1166WAT      O 3708   2.063   2.534   1.893 -0.0256 -0.0034 -0.1654
 1166WAT     H1 3709   2.041   2.576   1.976 -0.7245 -0.2573 -0.2152
 1166WAT     H2 3710   2.056   2.605   1.828 -0.9860 -0.1212 -0.2165
 1167WAT      O 3711   3.839   2.051   1.978 -0.1005  0.8966  0.1796
 1167WAT     H1 3712   3.818   2.072   1.887  2.3655 -1.2394 -1.0097
 1167WAT     H2 3713   3.798   1.966   1.993 -0.4400  1.2048  1.0776
 1168WAT      O 3714   1.862   4.398   2.547  0.1197 -0.1619  0.0373
 1168WAT     H1 3715   1.870   4.493   2.535 -4.1108  0.3202 -0.4359
 1168WAT     H2 3716   1.800   4.389   2.619 -2.0649 -2.4067 -1.9563
 1169WAT      O 3717   0.356   1.661   1.194 -0.7135  0.0468  0.3746
 1169WAT     H1 3718   0.324   1.751   1.203  0.3000  0.5160 -0.4451
 1169WAT     H2 3719   0.434   1.658   1.250 -0.6090 -0.2556  0.2132
 1170WAT      O 3720   0.123   2.446   0.252 -0.2376 -0.2306  0.2025
 1170WAT     H1 3721   0.217   2.440   0.232  0.0659  0.9682  1.1499
 1170WAT     H2 3722   0.120   2.465   0.346 -1.3584  1.3777 -0.1236
 1171WAT      O 3723   0.260   3.430   5.488 -0.4187  0.1400 -0.4046
 1171WAT     H1 3724   0.335   3.453   5.433 -0.6925  1.5625 -0.2170
 1171WAT     H2 3725   0.257   3.334   5.486  1.8158  0.0008  0.1364
 1172WAT      O 3726   4.772   2.637   3.855  0.1672  0.1084 -0.3343
 1172WAT     H1 3727   4.776   2.710   3.794  1.1320 -0.1640 -0.6175
 1172WAT     H2 3728   4.681   2.634   3.883  0.0921  1.3565 -0.3914
 1173WAT      O 3729   1.049   2.867   4.878 -0.5749 -0.1105 -0.1175
 1173WAT     H1 3730   0.967   2.827   4.847 -0.9575  0.8637 -0.4365
 1173WAT     H2 3731   1.025   2.959   4.893  0.1590 -0.0941  1.0094
 1174WAT      O 3732   1.328   1.181   0.880  0.3450  0.1696 -0.2243
 1174WAT     H1 3733   1.381   1.118   0.928 -0.2203  0.0850  0.3043
 1174WAT     H2 3734   1.241   1.141   0.877  0.2780  0.3567 -0.9791
 1175WAT      O 3735   4.155   2.676   2.814 -0.0935  0.7489  0.3475
 1175WAT     H1 3736   4.104   2.595   2.818  0.5754  0.2123 -1.2311
 1175WAT     H2 3737   4.225   2.664   2.877 -0.2495  0.2717  0.4342
 1176WAT      O 3738   1.125   0.090   1.313  0.2912  0.4315  0.0792
 1176WAT     H1 3739   1.160   0.124   1.395 -1.3776 -2.5200  2.2056
 1176WAT     H2 3740   1.189   0.025   1.284  0.5404  0.9722 -0.6049
 1177WAT      O 3741   4.437   1.167   2.629 -0.2532 -0.0375  0.3870
 1177WAT     H1 3742   4.401   1.123   2.552 -0.2363 -0.3076  0.5299
 1177WAT     H2 3743   4.529   1.184   2.607 -0.5324  0.8824 -0.0763
 1178WAT      O 3744   1.780   3.973   0.971  0.1377 -0.4696 -0.4765
 1178WAT     H1 3745   1.819   4.038   1.030 -0.9802 -1.5130  1.5230
 1178WAT     H2 3746   1.695   3.953   1.010 -0.9458 -0.7948 -2.8244
 1179WAT      O 3747   2.152   3.362   3.070  0.1980  0.1907 -0.2679
 1179WAT     H1 3748   2.122   3.304   3.000 -1.1159  1.2087 -0.5795
 1179WAT     H2 3749   2.105   3.444   3.055  0.1145  0.5279  1.6376
 1180WAT      O 3750   2.225   5.155   1.458 -0.0970  0.1476  0.4655
 1180WAT     H1 3751   2.232   5.181   1.366 -3.7926  0.2971  0.1134
 1180WAT     H2 3752   2.300   5.197   1.500 -0.1980  2.9803 -1.8679
 1181WAT      O 3753   2.893   0.012   1.435 -0.1027  0.0232 -0.3729
 1181WAT     H1 3754   2.902   0.106   1.425  1.7718 -0.2461 -1.7038
 1181WAT     H2 3755   2.874  -0.021   1.347  1.7352 -1.0369 -0.4285
 1182WAT      O 3756   3.224   3.183   5.476  0.5998  0.3577  0.0289
 1182WAT     H1 3757   3.263   3.165   5.390  1.0526  1.5730 -0.0359
 1182WAT     H2 3758   3.148   3.238   5.458  2.0360  2.6411  0.5220
 1183WAT      O 3759   3.886   2.348   2.391  0.3168 -0.1262  0.1480
 1183WAT     H1 3760   3.972   2.389   2.384  0.2449  0.3569  1.6469
 1183WAT     H2 3761   3.902   2.255   2.377  1.3046 -0.2013  1.5024
 1184WAT      O 3762   2.786   4.580   3.967  0.3422 -0.0213  0.2309
 1184WAT     H1 3763   2.729   4.655   3.952  2.1689  1.7492  1.5838
 1184WAT     H2 3764   2.866   4.601   3.918  0.6503 -1.4232  0.0901
 1185WAT      O 3765   1.653   5.474   1.388 -0.5101  0.7620 -0.5133
 1185WAT     H1 3766   1.719   5.448   1.452 -1.0395  0.3067 -0.1454
 1185WAT     H2 3767   1.569   5.465   1.434 -0.8161  1.6516 -0.8627
 1186WAT      O 3768   3.884   3.901   1.006  0.1179  0.0782 -0.1435
 1186WAT     H1 3769   3.840   3.825   0.970 -0.7180  0.6856 -0.4425
 1186WAT     H2 3770   3.893   3.961   0.932  1.1164  0.1264 -0.0015
 1187WAT      O 3771   4.256   1.348   0.674  0.0996 -0.2557 -0.2136
 1187WAT     H1 3772   4.213   1.423   0.633 -0.4715 -0.7209 -0.4768
 1187WAT     H2 3773   4.330   1.386   0.722 -1.2264  0.7132  1.1732
 1188WAT      O 3774   1.383   0.298   2.173  0.4375  0.2498 -0.2061
 1188WAT     H1 3775   1.321   0.290   2.246  0.7054  2.5366  0.3660
 1188WAT     H2 3776   1.458   0.244   2.198  0.5514  1.0551  1.3072
 1189WAT      O 3777   2.989   4.115   1.666  0.0610 -0.7673 -0.2669
 1189WAT     H1 3778   3.004   4.151   1.753 -2.0579 -1.9208  0.6189
 1189WAT     H2 3779   3.035   4.176   1.607  0.7133  0.5650  1.5388
 1190WAT      O 3780   0.898   1.415   1.811 -0.2543 -0.4795  0.0752
 1190WAT     H1 3781   0.980   1.448   1.847 -0.3928 -0.7357  0.6417
 1190WAT     H2 3782   0.844   1.493   1.798 -0.1627 -0.3708  0.3316
 1191WAT      O 3783   0.343   0.714   3.820 -1.1252 -0.2030  0.0720
 1191WAT     H1 3784   0.400   0.720   3.897 -1.4391  1.5341  0.1976
 1191WAT     H2 3785   0.259   0.684   3.856 -1.4369  1.1494  0.5196
 1192WAT      O 3786   2.267   2.211   2.677 -0.3333 -0.5311 -0.2792
 1192WAT     H1 3787   2.206   2.239   2.609 -1.7178 -1.5840  0.4655
 1192WAT     H2 3788   2.225   2.237   2.759  1.5256  1.1337  0.2177
 1193WAT      O 3789   3.067   1.665   3.428  0.4377  0.4759  0.0995
 1193WAT     H1 3790   3.070   1.750   3.385  0.9140 -0.2324 -1.3136
 1193WAT     H2 3791   3.149   1.622   3.404  0.7554  0.0652  1.7808
 1194WAT      O 3792   3.787   0.703   2.583 -0.8572 -0.3302  0.1936
 1194WAT     H1 3793   3.870   0.656   2.589 -1.2232 -0.9616  0.4438
 1194WAT     H2 3794   3.748   0.671   2.501 -0.5553  0.4741 -0.2744
 1195WAT      O 3795   3.446   1.924   2.207 -0.4350  0.0214 -0.0368
 1195WAT     H1 3796   3.533   1.887   2.188 -0.8736 -0.2577 -1.6603
 1195WAT     H2 3797   3.420   1.882   2.289  1.2563  0.6688  0.8724
 1196WAT      O 3798   1.242   3.966   1.500 -0.5300  0.2158  0.5825
 1196WAT     H1 3799   1.321   3.998   1.543 -0.5455  1.5702 -0.3587
 1196WAT     H2 3800   1.243   4.007   1.414 -1.9527 -0.2406  0.3242
 1197WAT      O 3801   0.112   0.609   3.932 -1.0087  0.1139  0.2315
 1197WAT     H1 3802   0.110   0.517   3.958 -1.3417 -0.0510 -0.3461
 1197WAT     H2 3803   0.020   0.633   3.921 -0.8868  0.1806 -0.7305
 1198WAT      O 3804   2.162   0.130   3.015  0.1703 -0.1269  0.2828
 1198WAT     H1 3805   2.248   0.113   2.976  0.4439 -1.2364  1.3042
 1198WAT     H2 3806   2.117   0.184   2.951  0.8651 -1.2650 -1.2222
 1199WAT      O 3807   2.779   3.556   4.781  0.0836 -0.5393 -0.1489
 1199WAT     H1 3808   2.721   3.612   4.833  0.3676 -0.1742 -0.2292
 1199WAT     H2 3809   2.748   3.467   4.800 -1.7225 -0.2931 -1.6054
 1200WAT      O 3810   3.045   2.382   2.371  0.5282  0.1753 -0.5595
 1200WAT     H1 3811   3.109   2.446   2.402  0.2282 -0.2394  1.0191
 1200WAT     H2 3812   3.049   2.388   2.276  0.3329  2.6952 -0.4742
 1201WAT      O 3813   2.529   3.094   0.649 -0.0654  0.2969 -0.1171
 1201WAT     H1 3814   2.480   3.159   0.598 -0.9031 -0.3905 -0.2163
 1201WAT     H2 3815   2.584   3.049   0.584  0.0922  0.5161 -0.1383
 1202WAT      O 3816   1.670   5.413   3.142 -0.7289 -0.5696 -0.0484
 1202WAT     H1 3817   1.595   5.456   3.100 -0.2674 -0.8424 -1.1860
 1202WAT     H2 3818   1.746   5.445   3.094 -0.1755 -0.8449  0.6297
 1203WAT      O 3819   1.633   4.159   2.616 -0.0388  0.2652  0.2407
 1203WAT     H1 3820   1.596   4.147   2.704 -0.8401 -0.5130 -0.1880
 1203WAT     H2 3821   1.724   4.132   2.626 -0.8761 -3.0649  0.1672
 1204WAT      O 3822   4.151   3.558   2.060  0.3557  0.1650  0.7302
 1204WAT     H1 3823   4.211   3.543   2.133  0.9510  0.2632  0.2789
 1204WAT     H2 3824   4.145   3.472   2.017  0.8217  0.3355  0.3079
 1205WAT      O 3825   2.508   1.910   0.363  0.5774  0.0216 -0.3488
 1205WAT     H1 3826   2.426   1.866   0.386 -0.5742  1.6844 -1.1083
 1205WAT     H2 3827   2.544   1.939   0.448 -1.6479  2.6665 -0.1645
 1206WAT      O 3828   2.355   4.148   3.916  0.0182  0.1652  0.7037
 1206WAT     H1 3829   2.423   4.111   3.973 -0.0327 -0.2593  0.4927
 1206WAT     H2 3830   2.275   4.142   3.968 -0.0301 -0.2317  0.5859
 1207WAT      O 3831   0.726   0.607   1.079 -0.1269 -0.4190  0.6941
 1207WAT     H1 3832   0.734   0.619   1.174 -0.6563 -0.3558  0.7313
 1207WAT     H2 3833   0.667   0.533   1.069 -1.1719  0.4269  0.4030
 1208WAT      O 3834   4.335   0.020   2.326 -0.1616 -0.5702  0.1479
 1208WAT     H1 3835   4.293  -0.006   2.243 -1.0423 -1.3513  0.8081
 1208WAT     H2 3836   4.293   0.103   2.348 -0.0075 -0.4153 -0.1346
 1209WAT      O 3837   3.996   1.683   3.905 -0.2702  0.0374 -0.1758
 1209WAT     H1 3838   4.057   1.609   3.908 -1.0369 -0.5864  1.1863
 1209WAT     H2 3839   4.014   1.726   3.822  2.3519  0.1626  0.3927
 1210WAT      O 3840   0.876   0.802   3.916 -0.0086  0.6099 -0.1162
 1210WAT     H1 3841   0.861   0.890   3.951  0.9451  0.4904  0.6413
 1210WAT     H2 3842   0.915   0.754   3.989 -0.1731 -0.3385 -0.6422
 1211WAT      O 3843   3.047   5.174   3.139 -0.5004 -0.6240 -0.0683
 1211WAT     H1 3844   3.075   5.213   3.222  0.3949 -0.7746 -0.2835
 1211WAT     H2 3845   3.110   5.103   3.123  0.3549  0.4052 -1.6541
 1212WAT      O 3846   2.456   4.594   2.048  0.1873  0.1944 -0.5326
 1212WAT     H1 3847   2.500   4.509   2.042  0.5449  0.1939  1.3513
 1212WAT     H2 3848   2.414   4.593   2.134 -1.6530  1.0990 -1.3580
 1213WAT      O 3849   2.932   2.754   2.277  0.2419  0.0560  0.0421
 1213WAT     H1 3850   2.921   2.686   2.211 -0.8132 -1.9973  2.1729
 1213WAT     H2 3851   2.854   2.748   2.332  1.3743  1.1360  1.9137
 1214WAT      O 3852   4.899   3.675   2.983  0.0267  0.1836 -0.8681
 1214WAT     H1 3853   4.927   3.708   2.898  0.5196 -0.3443 -0.9167
 1214WAT     H2 3854   4.980   3.650   3.028 -0.3210 -0.9179 -0.8272
 1215WAT      O 3855   1.789   1.507   4.422 -0.2783 -0.9274  0.0573
 1215WAT     H1 3856   1.786   1.419   4.384 -2.0572 -0.5795 -0.6786
 1215WAT     H2 3857   1.823   1.493   4.511  0.4363 -2.2089 -0.3897
 1216WAT      O 3858   0.681   0.616   3.237  0.3620 -0.7790 -0.1298
 1216WAT     H1 3859   0.697   0.682   3.304 -1.4315  0.3019 -0.6808
 1216WAT     H2 3860   0.767   0.600   3.198  0.8228  1.4913 -0.1919
 1217WAT      O 3861   0.466   0.763   2.544 -0.5389 -0.3212  0.2757
 1217WAT     H1 3862   0.530   0.831   2.562  0.4259 -1.3925  1.0356
 1217WAT     H2 3863   0.402   0.771   2.614 -0.7524  0.1595  0.0325
 1218WAT      O 3864   2.622   0.268   1.263 -0.6040 -0.1238 -0.1778
 1218WAT     H1 3865   2.711   0.279   1.296 -0.3174 -0.6340 -0.7589
 1218WAT     H2 3866   2.587   0.357   1.259 -1.0604 -0.0886  2.5440
 1219WAT      O 3867   3.578   2.417   3.917  0.0880 -0.9653  0.1575
 1219WAT     H1 3868   3.613   2.501   3.889  0.0420 -0.3426  1.8455
 1219WAT     H2 3869   3.654   2.368   3.948 -0.0708 -0.9386  0.6046
 1220WAT      O 3870   3.861   2.348   2.017  0.2917  0.1801 -0.2808
 1220WAT     H1 3871   3.797   2.360   1.946 -0.0722 -0.5336 -0.0836
 1220WAT     H2 3872   3.861   2.253   2.033 -0.4573  0.4459  1.4448
 1221WAT      O 3873   3.562   0.466   3.037  0.4596 -0.1057 -0.4588
 1221WAT     H1 3874   3.614   0.537   3.077  0.8337 -0.5393 -0.1600
 1221WAT     H2 3875   3.473   0.481   3.070  0.4524  0.4576 -0.7162
 1222WAT      O 3876   4.597   0.648   2.402  0.1706  0.1720  0.2413
 1222WAT     H1 3877   4.564   0.559   2.399 -0.0108  0.0495  3.1341
 1222WAT     H2 3878   4.692   0.639   2.400  0.1573 -0.1350  0.7713
 1223WAT      O 3879   1.107   3.501   1.425  0.4003 -0.1961  0.5420
 1223WAT     H1 3880   1.111   3.543   1.339 -0.0100 -1.3171 -0.0429
 1223WAT     H2 3881   1.198   3.497   1.455  0.5961 -0.2191 -0.0553
 1224WAT      O 3882   0.558   1.115   0.673 -0.3469  0.9158  0.6369
 1224WAT     H1 3883   0.540   1.029   0.711 -0.5605  0.5472 -0.2769
 1224WAT     H2 3884   0.476   1.163   0.683  0.5252  2.0397  3.6650
 1225WAT      O 3885   4.293   4.000   2.463  0.5258  0.3328  0.2024
 1225WAT     H1 3886   4.227   4.042   2.408 -0.6088 -0.0251  1.2683
 1225WAT     H2 3887   4.244   3.958   2.533  1.9426  0.8366  1.5549
 1226WAT      O 3888   3.763   3.219   4.499  0.3692  0.3085  0.6332
 1226WAT     H1 3889   3.787   3.133   4.534  1.1157 -0.8195 -2.3474
 1226WAT     H2 3890   3.777   3.279   4.572  0.3046 -1.9899  2.6822
 1227WAT      O 3891   2.887   4.654   4.745  0.2883 -0.1096  0.1233
 1227WAT     H1 3892   2.847   4.622   4.826  0.4863 -0.6096  0.0328
 1227WAT     H2 3893   2.979   4.668   4.767 -0.2023  2.5099  0.7432
 1228WAT      O 3894   4.105   0.880   3.077  0.2136  0.2598  0.2215
 1228WAT     H1 3895   4.183   0.843   3.118  1.2660  0.8770 -1.1181
 1228WAT     H2 3896   4.090   0.962   3.124 -1.0682 -0.9462  2.0209
 1229WAT      O 3897   1.211   0.222   4.006 -0.0795  0.1379 -0.4986
 1229WAT     H1 3898   1.178   0.133   4.023 -0.9037  0.0980 -2.1634
 1229WAT     H2 3899   1.132   0.276   4.006  0.3293  0.7346 -0.3676
 1230WAT      O 3900   2.597   2.046   2.983 -0.6297  0.0614 -0.1251
 1230WAT     H1 3901   2.586   2.141   2.981 -1.6727 -0.0213  0.5895
 1230WAT     H2 3902   2.545   2.018   3.059  0.1097 -1.0249 -0.0049
 1231WAT      O 3903   2.392   2.629   0.839  0.3082  0.1662 -0.5991
 1231WAT     H1 3904   2.327   2.681   0.791  1.4213  0.9318 -1.3223
 1231WAT     H2 3905   2.370   2.642   0.931 -0.4789  0.5147 -0.8265
 1232WAT      O 3906   3.245   3.603   0.084  0.2176 -0.5621 -0.3800
 1232WAT     H1 3907   3.158   3.601   0.046 -0.1245  0.7316  0.2753
 1232WAT     H2 3908   3.294   3.664   0.029  0.6129 -1.0117 -0.5339
 1233WAT      O 3909   2.151   0.082   2.374 -0.1439 -0.2303 -0.1378
 1233WAT     H1 3910   2.123   0.027   2.447 -1.7143  1.5715  0.6949
 1233WAT     H2 3911   2.245   0.067   2.367  0.4745  1.0607  3.6154
 1234WAT      O 3912   1.305   2.777   4.047 -0.3633 -0.2505 -0.5612
 1234WAT     H1 3913   1.320   2.856   3.994  0.7579 -0.7589 -1.0321
 1234WAT     H2 3914   1.211   2.779   4.066 -0.7115  0.2358 -2.1366
 1235WAT      O 3915   4.274   0.123   3.325 -0.3190 -0.8715  0.1355
 1235WAT     H1 3916   4.237   0.055   3.381 -1.2900  0.1053  0.7198
 1235WAT     H2 3917   4.237   0.204   3.358  3.0603  0.3507  1.4144
 1236WAT      O 3918   3.586   2.343   5.296  0.3647 -0.3067 -0.1195
 1236WAT     H1 3919   3.664   2.289   5.282  0.6411  0.0833 -0.1087
 1236WAT     H2 3920   3.548   2.310   5.377  1.2413  0.3371  0.5799
 1237WAT      O 3921   1.048   0.680   2.913 -0.3400  0.3421  0.8026
 1237WAT     H1 3922   1.128   0.660   2.863 -0.3272  1.2279  0.4549
 1237WAT     H2 3923   1.074   0.748   2.974 -0.6333  0.0412  1.2692
 1238WAT      O 3924   2.540   4.264   2.767 -0.0525  0.6487 -0.2012
 1238WAT     H1 3925   2.564   4.275   2.859  2.3008  0.0789 -0.6753
 1238WAT     H2 3926   2.623   4.268   2.720 -1.1536  0.5191 -2.2815
 1239WAT      O 3927   2.249   4.916   3.666  0.1254  0.4211 -0.1146
 1239WAT     H1 3928   2.172   4.938   3.720  0.6774 -0.3511  1.0320
 1239WAT     H2 3929   2.318   4.974   3.699  0.3651  0.2216 -0.2652
 1240WAT      O 3930   1.993   1.318   3.812 -0.3860 -0.3167 -0.2859
 1240WAT     H1 3931   1.955   1.406   3.807 -2.2102 -1.1242 -1.8634
 1240WAT     H2 3932   2.017   1.308   3.904  0.1613  1.9185 -0.1198
 1241WAT      O 3933   1.460   2.136   0.192  0.1580 -0.3724 -0.2789
 1241WAT     H1 3934   1.540   2.122   0.243 -0.2368 -0.6782  0.2645
 1241WAT     H2 3935   1.447   2.053   0.145 -1.3536 -1.3992  1.7842
 1242WAT      O 3936   0.804   1.001   4.330  0.2999 -0.1043  0.1720
 1242WAT     H1 3937   0.834   1.057   4.401  0.1689 -1.7235  1.5704
 1242WAT     H2 3938   0.883   0.957   4.298  0.1739 -0.3907  0.2477
 1243WAT      O 3939   0.742   2.404   5.391  0.2858 -0.2343  0.2702
 1243WAT     H1 3940   0.727   2.341   5.321 -1.1430 -1.5738  1.7039
 1243WAT     H2 3941   0.689   2.372   5.464  0.1148  2.2217  1.3210
 1244WAT      O 3942   0.200   0.714   2.661  0.5557 -0.2934  0.3180
 1244WAT     H1 3943   0.122   0.769   2.656  1.2406  0.8062  1.3262
 1244WAT     H2 3944   0.201   0.679   2.750  0.7974 -0.9574  0.0688
 1245WAT      O 3945   3.223   3.826   3.146 -1.0796 -0.1600  0.2072
 1245WAT     H1 3946   3.265   3.908   3.173 -0.0140 -1.2032  1.9421
 1245WAT     H2 3947   3.152   3.814   3.209 -2.0752  0.0788 -0.8565
 1246WAT      O 3948   4.733   2.929   1.156  0.0996 -0.4122  0.1833
 1246WAT     H1 3949   4.825   2.926   1.181  0.5707  1.5159 -1.0803
 1246WAT     H2 3950   4.691   2.981   1.225  0.0634 -0.7806  0.4426
 1247WAT      O 3951   3.899   3.354   3.670 -0.2180 -0.2051 -0.6181
 1247WAT     H1 3952   3.977   3.317   3.629 -1.4210 -1.9828 -1.4307
 1247WAT     H2 3953   3.887   3.303   3.750  0.1740  0.9685  0.2223
 1248WAT      O 3954   0.011   3.727   2.721 -0.2275 -0.1202  0.2325
 1248WAT     H1 3955   0.079   3.754   2.659 -1.6091  2.0139 -0.4763
 1248WAT     H2 3956  -0.024   3.646   2.684  1.0340 -0.5584 -0.0713
 1249WAT      O 3957   4.199   3.938   3.238 -0.5252  0.6338  0.1839
 1249WAT     H1 3958   4.216   4.010   3.177 -1.3168  0.7831  0.1352
 1249WAT     H2 3959   4.104   3.936   3.247 -0.6028 -1.1527 -0.7104
 1250WAT      O 3960   4.491   0.934   2.461 -0.8067 -0.0164 -0.2734
 1250WAT     H1 3961   4.572   0.886   2.476 -0.5992  0.8411  1.6469
 1250WAT     H2 3962   4.422   0.872   2.487 -0.5804  0.3790  1.3549
 1251WAT      O 3963   4.613   4.287   3.333 -0.6861  0.5401 -0.4657
 1251WAT     H1 3964   4.704   4.312   3.324 -0.8001  0.6408 -1.3921
 1251WAT     H2 3965   4.613   4.217   3.398  0.1398  0.0208 -1.0132
 1252WAT      O 3966   0.491   4.054   3.467 -0.2422 -0.2274  0.1217
 1252WAT     H1 3967   0.574   4.100   3.457 -0.2322 -0.0239  1.0433
 1252WAT     H2 3968   0.516   3.965   3.492 -0.2895 -0.4145 -0.4792
 1253WAT      O 3969   0.950   2.424   5.558  0.0500  0.2454  0.0262
 1253WAT     H1 3970   1.014   2.353   5.551 -0.2883 -0.0684  0.0781
 1253WAT     H2 3971   0.883   2.403   5.492  0.4155  1.0132 -0.6193
 1254WAT      O 3972   1.608   5.048   3.392  0.2947 -0.2662  0.1912
 1254WAT     H1 3973   1.552   4.977   3.360 -0.5755  0.3155  0.3702
 1254WAT     H2 3974   1.604   5.041   3.487  0.4103 -0.1412  0.2051
 1255WAT      O 3975   0.109   0.973   2.093 -0.0737  0.1242 -0.0190
 1255WAT     H1 3976   0.023   1.004   2.065 -0.1823 -0.9983 -1.0052
 1255WAT     H2 3977   0.098   0.952   2.186 -1.3890 -1.6348 -0.5149
 1256WAT      O 3978   0.550   3.067   5.351 -0.0587 -0.3077 -0.2489
 1256WAT     H1 3979   0.527   3.041   5.262 -0.1912  1.4326 -0.7623
 1256WAT     H2 3980   0.601   2.994   5.385 -0.6280 -1.3191 -1.4893
 1257WAT      O 3981   1.826   5.057   1.363  0.2882  0.7593 -0.1164
 1257WAT     H1 3982   1.858   5.065   1.273  0.6396  1.4411  0.0576
 1257WAT     H2 3983   1.899   5.086   1.417  0.4291 -0.5843  0.4508
 1258WAT      O 3984   3.996   2.684   3.124  0.4814  0.7514  0.4119
 1258WAT     H1 3985   3.946   2.602   3.126 -2.7755  2.5663  2.6974
 1258WAT     H2 3986   3.965   2.730   3.046 -1.8017  1.9590  1.9296
 1259WAT      O 3987   2.708   5.208   2.714  0.1365 -0.1485 -0.6401
 1259WAT     H1 3988   2.748   5.143   2.771 -1.3796 -1.0192 -0.5276
 1259WAT     H2 3989   2.676   5.158   2.639  0.7645  0.7770 -1.5584
 1260WAT      O 3990   0.776   5.152   3.500 -0.8435  0.9556 -0.4404
 1260WAT     H1 3991   0.814   5.178   3.416 -0.5545  0.9549 -0.3119
 1260WAT     H2 3992   0.850   5.154   3.561 -0.5650 -1.2008 -0.6422
 1261WAT      O 3993   4.395   4.298   1.957 -0.2113 -0.6359  0.1652
 1261WAT     H1 3994   4.419   4.349   2.035 -1.8184 -1.1425  1.0304
 1261WAT     H2 3995   4.451   4.220   1.963  0.1611 -0.3556  0.4372
 1262WAT      O 3996   3.958   4.552   3.059  0.1135  0.2224  0.0971
 1262WAT     H1 3997   4.004   4.469   3.072  0.0154 -0.2550 -2.1350
 1262WAT     H2 3998   3.974   4.574   2.966 -3.1730  0.6268 -0.4906
 1263WAT      O 3999   1.153   3.631   5.200  0.8465 -0.5384  0.4340
 1263WAT     H1 4000   1.151   3.722   5.170 -1.4187 -0.7115 -0.0702
 1263WAT     H2 4001   1.237   3.597   5.168  0.5234  0.5944 -1.7406
 1264WAT      O 4002   0.423   4.272   4.232  0.3628 -0.9016  0.9643
 1264WAT     H1 4003   0.457   4.315   4.311 -0.4626  0.7317  0.4833
 1264WAT     H2 4004   0.493   4.280   4.168 -0.2575  1.0494  0.4579
 1265WAT      O 4005   4.181   3.809   4.937  0.2354 -0.1742 -0.4552
 1265WAT     H1 4006   4.211   3.719   4.922 -0.0655 -0.6454  1.4597
 1265WAT     H2 4007   4.220   3.833   5.021 -0.2185  1.2663 -0.6278
 1266WAT      O 4008   3.966   4.237   2.629 -0.6184  0.6103  0.1533
 1266WAT     H1 4009   4.058   4.262   2.644 -1.0838  2.4547  0.2584
 1266WAT     H2 4010   3.944   4.279   2.546 -0.8733 -1.3449 -0.8061
 1267WAT      O 4011   1.904   2.861   5.092  0.0863  0.1468 -0.5770
 1267WAT     H1 4012   1.985   2.909   5.110  0.2100  0.3401 -1.6159
 1267WAT     H2 4013   1.836   2.910   5.138  0.1013  1.7433 -2.1566
 1268WAT      O 4014   1.839   5.361   4.322 -0.2166 -0.2458 -0.0970
 1268WAT     H1 4015   1.884   5.440   4.294 -0.8857 -0.4159 -1.7268
 1268WAT     H2 4016   1.772   5.392   4.384  0.0102  0.3628 -0.1527
 1269WAT      O 4017   1.371   4.155   4.312  0.4734 -0.2435 -0.8357
 1269WAT     H1 4018   1.342   4.071   4.349  1.7817  0.0023  0.9101
 1269WAT     H2 4019   1.308   4.219   4.347 -0.3095 -0.4232 -1.8724
 1270WAT      O 4020   3.949   1.428   1.553 -0.1935 -0.3705  0.7559
 1270WAT     H1 4021   4.044   1.429   1.540 -0.1050 -0.2278  1.3841
 1270WAT     H2 4022   3.916   1.372   1.483  0.4411 -1.1399  1.0500
 1271WAT      O 4023   2.449   4.709   4.144 -0.4306 -0.4213  0.0480
 1271WAT     H1 4024   2.436   4.803   4.132 -1.6624 -0.4269  1.0545
 1271WAT     H2 4025   2.408   4.669   4.068  0.0579 -0.1569 -0.3625
 1272WAT      O 4026   1.817   0.925   2.275 -0.0249 -0.3751  0.0325
 1272WAT     H1 4027   1.873   0.849   2.259 -1.1093 -0.9762 -1.0793
 1272WAT     H2 4028   1.875   1.000   2.264  0.7268 -1.0036 -0.3555
 1273WAT      O 4029   4.142   2.468   0.545 -0.1747  0.2255  0.2812
 1273WAT     H1 4030   4.105   2.497   0.629 -0.9507  2.1125 -0.6503
 1273WAT     H2 4031   4.068   2.432   0.497  0.2962 -0.9856  0.4091
 1274WAT      O 4032   4.262   1.215   3.776 -0.6159 -0.9134  0.6813
 1274WAT     H1 4033   4.175   1.178   3.762 -0.8567 -0.0199 -0.3446
 1274WAT     H2 4034   4.292   1.239   3.688 -0.2948  0.9016  1.2399
 1275WAT      O 4035   1.444   5.514   1.885  0.2881 -0.1910  0.0478
 1275WAT     H1 4036   1.385   5.547   1.817  0.3301 -0.0163  0.0963
 1275WAT     H2 4037   1.462   5.424   1.859 -0.8044 -0.5905  0.5644
 1276WAT      O 4038   0.746   1.664   5.364 -0.2704 -0.2231 -0.2961
 1276WAT     H1 4039   0.781   1.682   5.451  2.0862  1.1492 -1.4093
 1276WAT     H2 4040   0.652   1.678   5.372  0.0998  1.6084  1.6437
 1277WAT      O 4041   4.087   5.418   3.348  0.0398  0.1269  0.5321
 1277WAT     H1 4042   4.069   5.324   3.341  1.0277 -0.1625  1.5772
 1277WAT     H2 4043   4.031   5.458   3.281 -1.9869 -1.0007  1.4370
 1278WAT      O 4044   2.443   5.476   2.626  0.1355 -0.2109  0.1113
 1278WAT     H1 4045   2.405   5.489   2.713 -0.1497  0.0925 -0.0580
 1278WAT     H2 4046   2.449   5.563   2.589  0.5584 -0.3077 -0.0546
 1279WAT      O 4047   2.150   5.255   3.387 -0.0718 -0.3751  0.4144
 1279WAT     H1 4048   2.240   5.270   3.357 -0.1676  1.4363  0.9414
 1279WAT     H2 4049   2.145   5.297   3.472 -1.6198  0.2097  0.0701
 1280WAT      O 4050   1.741   5.269   3.603  0.1290 -0.3131 -0.5876
 1280WAT     H1 4051   1.743   5.181   3.567 -1.6648  0.0985 -1.7737
 1280WAT     H2 4052   1.729   5.326   3.528  1.3377  0.9954  0.1501
 1281WAT      O 4053   1.197   1.900   4.784  1.0738  0.0250  0.3022
 1281WAT     H1 4054   1.129   1.928   4.723  2.2525  1.3468 -0.4557
 1281WAT     H2 4055   1.268   1.962   4.771  1.7111 -0.1971  2.4036
 1282WAT      O 4056   0.481   2.711   0.558  0.5066 -0.0860 -0.5538
 1282WAT     H1 4057   0.554   2.716   0.619  0.7050 -0.3195 -0.7651
 1282WAT     H2 4058   0.518   2.666   0.481 -0.3108 -1.8308  0.0243
 1283WAT      O 4059   2.228   4.206   2.009 -0.0573 -0.0902 -0.6375
 1283WAT     H1 4060   2.176   4.269   2.058 -1.6325 -0.4501 -1.7852
 1283WAT     H2 4061   2.167   4.168   1.946  1.5656 -0.6489 -1.9382
 1284WAT      O 4062   0.365   2.942   3.825 -0.5246  0.1527  0.4942
 1284WAT     H1 4063   0.334   2.993   3.750 -1.1663 -0.6596  0.1852
 1284WAT     H2 4064   0.287   2.932   3.881 -0.6230 -1.1177  0.1705
 1285WAT      O 4065   1.687   5.153   4.265  0.4974 -0.7524  0.3522
 1285WAT     H1 4066   1.749   5.224   4.282 -0.4591 -0.3183  2.2536
 1285WAT     H2 4067   1.611   5.197   4.227 -0.7886 -0.4152  3.1169
 1286WAT      O 4068   4.227   4.322   4.467 -0.4616  0.0634  0.5258
 1286WAT     H1 4069   4.157   4.284   4.415 -1.2083  0.2301  1.3913
 1286WAT     H2 4070   4.286   4.361   4.402 -2.4074  2.0703 -0.1941
 1287WAT      O 4071   4.464   1.785   0.015 -0.3884  0.4144  0.2435
 1287WAT     H1 4072   4.371   1.787   0.037 -0.5539  0.5252 -0.4282
 1287WAT     H2 4073   4.503   1.853   0.069 -0.8209  0.8480  0.0203
 1288WAT      O 4074   4.429   4.244   2.455  0.0361  0.5731  0.3017
 1288WAT     H1 4075   4.397   4.154   2.447 -0.8921  0.8958  0.2725
 1288WAT     H2 4076   4.465   4.264   2.368 -0.0004  0.3236  0.2268
 1289WAT      O 4077   4.671   3.014   3.012 -0.0036  0.5285 -0.0424
 1289WAT     H1 4078   4.617   3.088   2.982 -0.3310 -0.5817 -2.4629
 1289WAT     H2 4079   4.761   3.041   2.994 -0.1301  0.3233 -1.0406
 1290WAT      O 4080   4.161   1.488   3.310 -0.2379  0.0109  0.1697
 1290WAT     H1 4081   4.175   1.482   3.215  0.0544 -1.0232  0.2604
 1290WAT     H2 4082   4.250   1.485   3.346 -0.2863  1.5273  0.4355
 1291WAT      O 4083   3.150   4.564   4.791  0.2359  0.0842 -0.1071
 1291WAT     H1 4084   3.227   4.553   4.735 -0.4919 -0.5576 -1.0120
 1291WAT     H2 4085   3.152   4.488   4.849  0.4821  0.2600  0.1150
 1292WAT      O 4086   2.071   4.922   0.978 -0.0799 -0.5325  0.6571
 1292WAT     H1 4087   2.073   4.921   1.074 -1.3743  0.3796  0.7182
 1292WAT     H2 4088   1.988   4.964   0.956 -0.0937 -1.2946 -0.8793
 1293WAT      O 4089   0.903   2.121   4.430  0.4694  0.1205 -0.6297
 1293WAT     H1 4090   0.941   2.201   4.466  1.7272  0.0991 -1.8100
 1293WAT     H2 4091   0.929   2.122   4.338 -1.7351 -0.3428 -1.3153
 1294WAT      O 4092   3.439   3.411   2.006  0.6757  0.2333 -0.1867
 1294WAT     H1 4093   3.455   3.318   1.993 -0.4077 -0.2260  1.4991
 1294WAT     H2 4094   3.498   3.454   1.944  1.6062 -1.5481 -0.6047
 1295WAT      O 4095   2.582   2.214   0.513 -0.2616  0.3155 -0.2139
 1295WAT     H1 4096   2.539   2.166   0.584  1.0667 -0.3307  0.1870
 1295WAT     H2 4097   2.630   2.284   0.558  0.6552 -0.1513 -0.4479
 1296WAT      O 4098   1.817   2.208   0.695  0.2230 -0.5353  0.2167
 1296WAT     H1 4099   1.822   2.113   0.694 -0.6233 -0.6189 -1.4562
 1296WAT     H2 4100   1.763   2.229   0.771  0.0090 -1.4292  0.3181
 1297WAT      O 4101   3.135   2.464   4.946 -0.0110 -0.3719 -0.2458
 1297WAT     H1 4102   3.128   2.457   5.041  0.5240 -2.3033 -0.2976
 1297WAT     H2 4103   3.202   2.532   4.931  1.5144 -1.5585  0.8456
 1298WAT      O 4104   2.952   0.500   3.041 -0.1831  0.4464  0.3548
 1298WAT     H1 4105   2.859   0.480   3.031  0.1539 -0.5420 -1.0452
 1298WAT     H2 4106   2.983   0.515   2.952  1.0544  0.5164  0.7824
 1299WAT      O 4107   0.755   4.373   1.388 -0.3812 -0.0485  0.0163
 1299WAT     H1 4108   0.788   4.320   1.315  3.0781 -0.9432  2.0345
 1299WAT     H2 4109   0.773   4.464   1.362  1.2649 -0.3854 -0.1029
 1300WAT      O 4110   3.312   4.110   4.233  0.0049  0.2454  0.0609
 1300WAT     H1 4111   3.387   4.070   4.188 -0.9031  0.5156 -1.7773
 1300WAT     H2 4112   3.335   4.203   4.238 -0.9138  0.6531 -2.1509
 1301WAT      O 4113   2.948   2.599   2.030  0.1727 -0.0014 -0.1999
 1301WAT     H1 4114   2.888   2.595   1.955 -1.1079  1.2240  0.7336
 1301WAT     H2 4115   2.971   2.507   2.046 -0.5360 -0.3919 -1.2949
 1302WAT      O 4116   2.337   2.896   4.391  0.3910  0.2271  0.4020
 1302WAT     H1 4117   2.281   2.959   4.436  1.0301  1.8186 -0.9124
 1302WAT     H2 4118   2.418   2.896   4.443  1.2735  2.3542 -0.8486
 1303WAT      O 4119   4.336   2.907   4.693  0.4697 -0.2493 -0.3912
 1303WAT     H1 4120   4.290   2.990   4.683 -0.1117 -0.6886 -1.4912
 1303WAT     H2 4121   4.397   2.922   4.766  1.0574  1.4348 -1.1893
 1304WAT      O 4122   4.840   3.813   1.155 -0.2370  0.1764  0.2433
 1304WAT     H1 4123   4.899   3.759   1.208 -0.0309  0.7653  0.6324
 1304WAT     H2 4124   4.887   3.896   1.146 -0.6828  0.3947 -0.0806
 1305WAT      O 4125   3.308   3.530   0.560 -0.7092 -0.8895  0.2987
 1305WAT     H1 4126   3.372   3.544   0.490  0.7650 -2.2336  1.3154
 1305WAT     H2 4127   3.223   3.536   0.516  0.1092  0.1854 -1.2324
 1306WAT      O 4128   4.229   2.827   3.816 -0.1874 -0.6067 -0.2711
 1306WAT     H1 4129   4.185   2.744   3.836  0.4887 -1.1869 -1.1448
 1306WAT     H2 4130   4.195   2.851   3.730  1.1817 -1.0575 -0.9532
 1307WAT      O 4131   2.921   0.432   2.073  0.1370 -0.6310  0.2840
 1307WAT     H1 4132   2.849   0.495   2.081  1.8036  1.2714  1.1901
 1307WAT     H2 4133   2.985   0.477   2.018  0.9381 -1.9978  0.0684
 1308WAT      O 4134   1.638   0.746   3.194  0.0717  0.5473  0.0038
 1308WAT     H1 4135   1.706   0.810   3.174  1.4817 -1.1539 -0.8461
 1308WAT     H2 4136   1.605   0.719   3.109 -1.1194  0.7300  0.3844
 1309WAT      O 4137   3.196   2.904   5.053 -0.6583  0.2917  0.6411
 1309WAT     H1 4138   3.245   2.825   5.028 -0.1932  0.2850  1.5415
 1309WAT     H2 4139   3.251   2.977   5.026 -0.7000  0.2975  0.5720
 1310WAT      O 4140   2.239   5.556   3.194  0.4673 -0.2278  0.4028
 1310WAT     H1 4141   2.158   5.606   3.200 -0.5396 -1.7553  0.0249
 1310WAT     H2 4142   2.302   5.617   3.156 -0.4078  1.0779  0.9944
 1311WAT      O 4143   3.279  -0.012   3.871 -0.3552 -0.0663 -0.2851
 1311WAT     H1 4144   3.237  -0.025   3.786 -1.2620  0.7161  0.0284
 1311WAT     H2 4145   3.309   0.079   3.869 -0.4699 -0.0175  0.2689
 1312WAT      O 4146   2.677   1.057   1.070  0.1452  0.0617  0.2751
 1312WAT     H1 4147   2.707   1.111   1.143 -0.6218  2.3372 -0.9819
 1312WAT     H2 4148   2.581   1.056   1.079 -0.0073  0.9255 -1.0118
 1313WAT      O 4149   2.285   4.242   0.954  0.1777  0.4759 -0.1663
 1313WAT     H1 4150   2.306   4.229   1.047  2.3828  1.1731 -0.5128
 1313WAT     H2 4151   2.235   4.324   0.953 -1.4474 -0.4429  0.5328
 1314WAT      O 4152   2.588   1.946   1.818 -0.0179 -0.1895  0.2084
 1314WAT     H1 4153   2.524   1.974   1.883 -1.1302  0.0988 -0.9570
 1314WAT     H2 4154   2.535   1.908   1.747  1.0116  1.0363 -1.2772
 1315WAT      O 4155   0.754   4.224   5.206 -0.1089 -0.3167 -0.6528
 1315WAT     H1 4156   0.687   4.271   5.256 -0.7667 -1.0534 -0.8066
 1315WAT     H2 4157   0.797   4.168   5.270 -1.7413 -2.1463 -1.0314
 1316WAT      O 4158   1.951   3.206   3.558  0.4693 -0.2607  0.0129
 1316WAT     H1 4159   2.009   3.232   3.487  0.7657  0.1730  0.4106
 1316WAT     H2 4160   1.927   3.115   3.538  0.2039 -0.0037 -0.8663
 1317WAT      O 4161   0.537   0.624   3.623  0.1074  0.6263  0.0388
 1317WAT     H1 4162   0.593   0.702   3.615  0.1706  0.5755 -0.0121
 1317WAT     H2 4163   0.475   0.647   3.693  0.1469  0.7096  0.0472
 1318WAT      O 4164   0.638   4.249   3.994 -0.6216 -0.7547 -0.0274
 1318WAT     H1 4165   0.728   4.239   3.963 -0.4431 -2.0744  0.8189
 1318WAT     H2 4166   0.645   4.313   4.065 -0.7854  1.0533 -1.5629
 1319WAT      O 4167   0.591   4.600   2.811  0.3786  0.1086 -0.0924
 1319WAT     H1 4168   0.656   4.535   2.784  0.2397  0.0931 -0.3887
 1319WAT     H2 4169   0.515   4.582   2.757 -0.0476 -0.1833  0.5922
 1320WAT      O 4170   4.008   1.156   3.724  0.3926 -0.3202  0.6299
 1320WAT     H1 4171   3.955   1.096   3.671  0.6421 -0.0235  0.0345
 1320WAT     H2 4172   3.954   1.235   3.731  0.6309 -0.1234  0.2669
 1321WAT      O 4173   3.816   3.183   2.598 -0.1959  0.4745 -0.0444
 1321WAT     H1 4174   3.735   3.201   2.645 -0.9547 -0.6397 -0.8813
 1321WAT     H2 4175   3.881   3.166   2.666 -0.8510  0.5907  0.6157
 1322WAT      O 4176   1.336   0.602   3.478  0.5085  0.2472 -0.2785
 1322WAT     H1 4177   1.290   0.582   3.559  1.6656  0.6206  0.4969
 1322WAT     H2 4178   1.271   0.588   3.409  0.1251 -2.3053  0.5058
 1323WAT      O 4179   1.518   0.655   2.020  0.0235  0.3266 -0.1653
 1323WAT     H1 4180   1.569   0.730   1.991  1.1850 -0.5570 -0.4672
 1323WAT     H2 4181   1.430   0.690   2.035  0.1077  1.4217 -1.9415
 1324WAT      O 4182   3.546   1.896   5.206 -0.6335  0.5461  0.0447
 1324WAT     H1 4183   3.471   1.920   5.261 -1.2403  0.0294 -0.5338
 1324WAT     H2 4184   3.582   1.818   5.247  0.2172  1.3600  0.8891
 1325WAT      O 4185   4.346   1.154   3.083 -0.2047 -0.0978  0.2148
 1325WAT     H1 4186   4.366   1.105   3.003  0.6526 -0.4751  0.6536
 1325WAT     H2 4187   4.387   1.103   3.153 -2.4771 -0.7865  1.1444
 1326WAT      O 4188   3.780   5.267   3.889  0.1664 -0.1486  0.1579
 1326WAT     H1 4189   3.826   5.240   3.968 -0.5141  1.7165  1.2607
 1326WAT     H2 4190   3.802   5.359   3.878 -0.6956 -0.0626 -1.1522
 1327WAT      O 4191   1.221   4.313   3.288  0.1907  0.2029 -0.1545
 1327WAT     H1 4192   1.136   4.347   3.315  1.2378  2.5548  0.4323
 1327WAT     H2 4193   1.259   4.382   3.233  1.5443 -0.9721 -0.7863
 1328WAT      O 4194   3.437   3.108   0.826 -0.2883  0.1152 -0.1414
 1328WAT     H1 4195   3.374   3.096   0.897  0.5485 -0.7511  0.4647
 1328WAT     H2 4196   3.385   3.148   0.756 -1.3147  0.2197  0.6495
 1329WAT      O 4197   2.436   4.920   3.334  0.4630  0.7235 -0.1743
 1329WAT     H1 4198   2.521   4.915   3.377 -0.1270  0.3205  0.9789
 1329WAT     H2 4199   2.385   4.850   3.375 -1.0782  2.2695  0.6436
 1330WAT      O 4200   0.419   2.424   5.114  0.1247 -0.0905  0.2510
 1330WAT     H1 4201   0.417   2.375   5.032  0.4186 -0.2741  0.3543
 1330WAT     H2 4202   0.429   2.515   5.087 -2.1649  0.1499 -0.0326
 1331WAT      O 4203   4.740   3.454   3.545  0.0259  0.7363  0.4120
 1331WAT     H1 4204   4.771   3.364   3.530 -0.1358  0.9524 -1.4824
 1331WAT     H2 4205   4.767   3.474   3.634 -0.5838 -1.4519  1.1528
 1332WAT      O 4206   4.209   4.104   4.047 -0.5232 -0.5509  0.4407
 1332WAT     H1 4207   4.242   4.029   3.997 -0.5300 -0.0977 -0.2629
 1332WAT     H2 4208   4.273   4.116   4.117 -0.0689 -0.7065  0.0624
 1333WAT      O 4209   0.923   3.681   3.267  0.1086 -0.3376 -0.0538
 1333WAT     H1 4210   0.930   3.587   3.285  1.3086 -0.2087  0.2485
 1333WAT     H2 4211   0.897   3.686   3.175  0.1416 -0.9635 -0.0998
 1334WAT      O 4212   4.783   2.374   0.323  0.3293 -0.5129 -0.5118
 1334WAT     H1 4213   4.746   2.439   0.383 -0.9086 -1.2507 -0.4559
 1334WAT     H2 4214   4.876   2.397   0.318 -0.0952  1.4046 -0.6613
 1335WAT      O 4215   0.546   4.042   4.422  0.6666 -0.1233 -0.0696
 1335WAT     H1 4216   0.616   4.060   4.485  1.1810  1.1341 -0.9605
 1335WAT     H2 4217   0.591   4.010   4.345  0.0775 -1.1621 -0.0068
 1336WAT      O 4218   2.207   5.207   3.807  0.9647 -0.1122 -0.0725
 1336WAT     H1 4219   2.117   5.212   3.775  0.9636  0.9938  0.0514
 1336WAT     H2 4220   2.199   5.219   3.902  1.1947 -0.6091  0.0108
 1337WAT      O 4221   3.453   3.957   0.434 -0.3103  0.3128 -0.3251
 1337WAT     H1 4222   3.413   4.005   0.507 -0.3913  0.9468 -0.7785
 1337WAT     H2 4223   3.535   3.923   0.471 -0.3028  0.7103  0.0375
 1338WAT      O 4224   1.817   5.067   2.459  0.2555 -0.1772 -0.1425
 1338WAT     H1 4225   1.790   4.987   2.504  0.8499 -0.2537  0.0901
 1338WAT     H2 4226   1.883   5.037   2.396  0.2794  0.0924 -0.2452
 1339WAT      O 4227   1.342   1.627   3.920 -0.2691  0.4976  0.2692
 1339WAT     H1 4228   1.297   1.561   3.867 -0.9743  0.1727  1.2418
 1339WAT     H2 4229   1.294   1.708   3.902  0.9277  0.9042 -1.3403
 1340WAT      O 4230   0.366   4.545   4.441  0.0678 -0.4477 -0.0125
 1340WAT     H1 4231   0.347   4.483   4.511  2.0838 -2.6681 -1.2581
 1340WAT     H2 4232   0.283   4.588   4.423 -1.1599 -1.9567  1.7222
 1341WAT      O 4233   4.304   4.726   1.940  0.0815 -0.7681 -0.0088
 1341WAT     H1 4234   4.331   4.812   1.972 -1.0832 -0.3216 -0.1628
 1341WAT     H2 4235   4.351   4.716   1.857  0.2639 -0.2952  0.0350
 1342WAT      O 4236   1.959   3.828   5.707  0.8885 -0.5122 -0.3342
 1342WAT     H1 4237   2.019   3.782   5.766  0.9711 -0.4024 -0.3335
 1342WAT     H2 4238   1.918   3.758   5.656  0.5427 -0.6324  0.1088
 1343WAT      O 4239   3.290   0.465   1.628  0.6065 -0.3679  0.0530
 1343WAT     H1 4240   3.240   0.520   1.568  1.9046 -0.0146 -0.7693
 1343WAT     H2 4241   3.309   0.386   1.578 -0.4365 -1.1743  0.9027
 1344WAT      O 4242   2.111   0.654   1.957  0.4829 -0.0368 -0.2702
 1344WAT     H1 4243   2.094   0.562   1.980 -0.3922 -0.0027 -0.7247
 1344WAT     H2 4244   2.173   0.649   1.884  0.0118 -0.2952 -0.6585
 1345WAT      O 4245   1.854   1.902   4.976  0.2312  0.4287 -0.2602
 1345WAT     H1 4246   1.797   1.833   4.942  0.1617  0.3168  0.0763
 1345WAT     H2 4247   1.836   1.903   5.070  2.5135 -1.2736  0.2879
 1346WAT      O 4248   0.301   3.280   4.433  0.2396 -0.1864  0.1178
 1346WAT     H1 4249   0.249   3.204   4.407 -1.4329  0.5761  1.0491
 1346WAT     H2 4250   0.342   3.310   4.352  0.1302 -1.4726 -0.4430
 1347WAT      O 4251   1.914   0.434   3.017 -0.4499  0.6319  0.2696
 1347WAT     H1 4252   1.852   0.441   3.090 -1.9897  1.2701 -1.0269
 1347WAT     H2 4253   1.858   0.438   2.939  1.0260 -1.0303 -0.9449
 1348WAT      O 4254   1.114   2.145   3.637  0.0613 -0.0450  0.7809
 1348WAT     H1 4255   1.096   2.222   3.691  0.0271  1.3135 -1.0874
 1348WAT     H2 4256   1.208   2.128   3.651  0.0350  0.2255  1.3188
 1349WAT      O 4257   0.195   0.622   2.943 -0.2420  0.2271 -0.0223
 1349WAT     H1 4258   0.245   0.576   3.010 -2.4042 -2.2054  0.0886
 1349WAT     H2 4259   0.121   0.660   2.990 -0.3185  0.8641 -0.6428
 1350WAT      O 4260   0.264   4.769   3.717 -0.0135 -0.1399 -0.2908
 1350WAT     H1 4261   0.288   4.749   3.808 -0.0128  2.5454  0.3819
 1350WAT     H2 4262   0.335   4.824   3.686  0.4899 -1.8145 -2.3400
 1351WAT      O 4263   2.296   0.703   3.658  0.7345  0.4715  0.2863
 1351WAT     H1 4264   2.222   0.760   3.641 -0.7913 -1.1188  1.2668
 1351WAT     H2 4265   2.332   0.735   3.741 -0.1342  0.0238  0.8511
 1352WAT      O 4266   4.782   3.308   3.066 -0.6712  0.1012 -0.3343
 1352WAT     H1 4267   4.791   3.240   3.133 -1.1835  1.0306  0.7091
 1352WAT     H2 4268   4.766   3.389   3.115 -1.4001  0.7611 -1.5967
 1353WAT      O 4269   4.868   3.520   2.240 -0.6440  0.5377 -0.5710
 1353WAT     H1 4270   4.827   3.524   2.153  0.3257  0.1374 -1.0600
 1353WAT     H2 4271   4.946   3.576   2.232 -0.2205  0.0162 -0.1490
 1354WAT      O 4272   0.272   1.163   3.762  0.2470 -0.8774  0.0327
 1354WAT     H1 4273   0.266   1.258   3.758  0.2042 -0.7779  1.6276
 1354WAT     H2 4274   0.189   1.136   3.802  0.2213 -1.5865 -0.4914
 1355WAT      O 4275   2.284   2.817   2.571 -0.2739  0.2989 -0.1308
 1355WAT     H1 4276   2.337   2.881   2.523 -0.2786  0.5942  0.2564
 1355WAT     H2 4277   2.194   2.832   2.541 -0.4022  1.0703  0.6038
 1356WAT      O 4278   2.109   3.812   3.691  0.1239  0.1775 -0.0666
 1356WAT     H1 4279   2.132   3.719   3.685 -1.9574 -0.4940  1.4194
 1356WAT     H2 4280   2.123   3.834   3.783 -0.0451  1.1732 -0.2713
 1357WAT      O 4281   1.537   2.546   4.803  0.1437  0.3159 -0.2050
 1357WAT     H1 4282   1.579   2.569   4.886  0.7221 -0.7288 -0.1868
 1357WAT     H2 4283   1.468   2.611   4.792  0.3313  0.7201  0.8879
 1358WAT      O 4284   1.869   1.422   3.237 -0.0969 -0.2825  0.2911
 1358WAT     H1 4285   1.913   1.340   3.215 -1.1116 -0.3575 -1.6159
 1358WAT     H2 4286   1.915   1.488   3.185  0.1476  0.2475  1.1554
 1359WAT      O 4287   1.109   4.294   1.975 -0.0827  0.8542 -0.4462
 1359WAT     H1 4288   1.147   4.208   1.991 -0.0009  0.7973 -0.9209
 1359WAT     H2 4289   1.039   4.302   2.040 -0.3860  0.2414 -0.6889
 1360WAT      O 4290   1.657   4.300   4.802  0.1623  0.1505 -0.4849
 1360WAT     H1 4291   1.632   4.367   4.738  0.6520 -0.7225 -1.6293
 1360WAT     H2 4292   1.577   4.251   4.818  0.0514  0.3338 -0.4716
 1361WAT      O 4293   1.478   5.456   2.649  0.2780 -1.0430  0.1795
 1361WAT     H1 4294   1.525   5.377   2.622  0.7957 -0.5029 -0.5518
 1361WAT     H2 4295   1.423   5.478   2.574  0.3341 -0.5672  0.2749
 1362WAT      O 4296   3.927   3.896   3.221  0.2529 -0.2755 -0.2350
 1362WAT     H1 4297   3.887   3.887   3.135  1.3780 -0.2102 -0.7683
 1362WAT     H2 4298   3.868   3.956   3.268  1.0073  1.8196 -1.8317
 1363WAT      O 4299   2.821   1.927   1.275 -0.0836  0.4584 -0.1487
 1363WAT     H1 4300   2.852   1.918   1.365  1.1917  0.6456 -0.5609
 1363WAT     H2 4301   2.857   2.010   1.244  1.2852 -0.5912 -1.5150
 1364WAT      O 4302   4.866   4.683   3.432  0.6254 -0.0982 -0.0206
 1364WAT     H1 4303   4.788   4.701   3.485 -0.7664 -1.5354 -1.4582
 1364WAT     H2 4304   4.863   4.749   3.362  2.0254  1.3024  1.1805
 1365WAT      O 4305   0.354   3.380   1.880 -0.3696  0.7469  0.6613
 1365WAT     H1 4306   0.398   3.393   1.796 -1.1707 -0.4935  0.0038
 1365WAT     H2 4307   0.412   3.320   1.928 -1.0598 -0.5092 -0.0157
 1366WAT      O 4308   0.438   3.397   0.860 -0.3335 -0.6352  0.3732
 1366WAT     H1 4309   0.519   3.359   0.893 -0.1893 -1.9387 -1.3658
 1366WAT     H2 4310   0.461   3.429   0.773 -1.3493  0.2953  0.4277
 1367WAT      O 4311   2.114   4.965   3.364  0.7243 -0.5210 -0.0333
 1367WAT     H1 4312   2.161   4.884   3.383 -0.1981 -1.3648 -1.2199
 1367WAT     H2 4313   2.170   5.034   3.400  1.0148 -1.7271  1.9692
 1368WAT      O 4314   0.932   4.491   4.145 -0.1026 -0.2754  0.5799
 1368WAT     H1 4315   1.005   4.446   4.101  0.2652 -2.8077  3.3981
 1368WAT     H2 4316   0.974   4.564   4.191  0.3475 -0.6313  0.7435
 1369WAT      O 4317   4.445   3.792   1.579 -0.3673 -0.0020  0.1662
 1369WAT     H1 4318   4.461   3.727   1.511  2.7752  0.2155  0.5602
 1369WAT     H2 4319   4.456   3.876   1.535  1.2361  0.1438  0.7745
 1370WAT      O 4320   0.318   0.423   1.887 -0.2693  0.8139 -0.6582
 1370WAT     H1 4321   0.334   0.426   1.981  0.6435  0.5055 -0.7898
 1370WAT     H2 4322   0.397   0.460   1.848 -0.6244  0.9056 -1.3049
 1371WAT      O 4323   3.270   4.270   3.735  0.2908 -0.1132 -0.3053
 1371WAT     H1 4324   3.275   4.292   3.828 -1.5049  2.0869 -0.6275
 1371WAT     H2 4325   3.258   4.175   3.733 -0.3885 -0.1188  1.7674
 1372WAT      O 4326   1.781   0.480   2.779  0.7614 -0.5309 -0.2240
 1372WAT     H1 4327   1.861   0.510   2.736 -0.5977  2.4613 -0.9989
 1372WAT     H2 4328   1.732   0.436   2.710  0.3398  0.6565 -0.7163
 1373WAT      O 4329   4.026   4.406   3.578 -0.4562  0.7313  0.0100
 1373WAT     H1 4330   3.975   4.487   3.589 -2.1907 -0.1816 -0.8987
 1373WAT     H2 4331   4.063   4.412   3.490  1.6277  1.6569  0.8695
 1374WAT      O 4332   1.244   4.556   2.046 -0.2389 -0.1466  0.4617
 1374WAT     H1 4333   1.207   4.541   1.958 -0.5313  1.4954  0.2680
 1374WAT     H2 4334   1.226   4.648   2.064  1.2684 -0.0321  1.5854
 1375WAT      O 4335   4.004   5.040   1.979  0.4808 -0.3067  0.4381
 1375WAT     H1 4336   3.947   5.064   2.052 -0.9886  0.2445 -0.8263
 1375WAT     H2 4337   4.022   5.122   1.934  0.5060 -0.7656 -0.4142
 1376WAT      O 4338   3.384   0.754   3.803  0.6901 -0.2897 -0.0382
 1376WAT     H1 4339   3.329   0.676   3.802  0.3374 -0.0440 -0.4290
 1376WAT     H2 4340   3.341   0.814   3.742  0.8405  0.2891  0.4155
 1377WAT      O 4341   4.633   4.860   2.157  0.1640 -0.3537 -0.1066
 1377WAT     H1 4342   4.661   4.890   2.070 -0.5929 -0.1119 -0.2764
 1377WAT     H2 4343   4.714   4.835   2.201  0.7082  0.8423 -0.3796
 1378WAT      O 4344   3.776   3.959   4.709  0.6098  0.0398 -0.1398
 1378WAT     H1 4345   3.787   4.045   4.670 -0.5497  0.2220 -0.1249
 1378WAT     H2 4346   3.682   3.940   4.697  0.2963 -0.0965  2.1198
 1379WAT      O 4347   3.165   5.386   2.218 -0.4490 -0.1059 -0.7481
 1379WAT     H1 4348   3.113   5.445   2.273  0.4699  1.8379 -1.8461
 1379WAT     H2 4349   3.106   5.363   2.146 -0.5346  0.2010 -0.7777
 1380WAT      O 4350   2.417   4.124   4.796  0.3943 -0.0177 -0.3292
 1380WAT     H1 4351   2.381   4.035   4.795  1.9925 -0.6982 -0.1117
 1380WAT     H2 4352   2.343   4.179   4.822 -0.4784 -1.3551  0.1336
 1381WAT      O 4353   1.038   5.521   1.469 -0.3776 -0.1798  0.4964
 1381WAT     H1 4354   1.033   5.472   1.387 -1.4270 -0.8153  0.9323
 1381WAT     H2 4355   1.126   5.501   1.502  0.1511  0.2701 -0.5676
 1382WAT      O 4356   2.095   2.024   4.585 -0.2895 -0.1245  0.1737
 1382WAT     H1 4357   2.096   2.093   4.651  2.0287  0.2660 -0.1533
 1382WAT     H2 4358   2.188   2.011   4.563 -0.9345 -0.1827 -3.0398
 1383WAT      O 4359   1.168   2.754   3.495  0.0231 -0.3162  0.5192
 1383WAT     H1 4360   1.168   2.849   3.502  1.0590 -0.2781  0.1178
 1383WAT     H2 4361   1.251   2.727   3.534 -0.3829 -1.0797  0.8847
 1384WAT      O 4362   3.878   2.862   1.454 -0.3996  0.2492  0.0268
 1384WAT     H1 4363   3.844   2.917   1.384  1.3403  2.1290  0.5593
 1384WAT     H2 4364   3.862   2.912   1.534 -0.2506 -0.7807  0.7163
 1385WAT      O 4365   2.194   4.123   2.925 -0.4599  0.9070  0.2675
 1385WAT     H1 4366   2.127   4.067   2.965 -0.1409  0.3167 -0.0052
 1385WAT     H2 4367   2.274   4.103   2.974  0.2621 -0.8402 -1.4630
 1386WAT      O 4368   2.651   0.610   1.579  0.1386  0.1275 -0.5951
 1386WAT     H1 4369   2.602   0.692   1.574 -0.3573  0.1054  2.2549
 1386WAT     H2 4370   2.641   0.570   1.493 -2.4870  1.4772 -1.0036
 1387WAT      O 4371   0.989   4.672   1.191  0.3959 -0.2819 -0.2683
 1387WAT     H1 4372   1.019   4.662   1.101 -0.0777 -0.1300 -0.4436
 1387WAT     H2 4373   1.049   4.617   1.242  2.0494  1.2991 -0.3811
 1388WAT      O 4374   1.667   3.374   3.560 -0.0101  0.1503  0.1049
 1388WAT     H1 4375   1.605   3.448   3.566 -0.3638  0.1240 -2.3183
 1388WAT     H2 4376   1.700   3.378   3.471  1.6260 -1.3627  0.5997
 1389WAT      O 4377   4.626   3.334   0.018 -0.0130  0.4333  0.0585
 1389WAT     H1 4378   4.714   3.331  -0.021 -0.2636  1.6604 -0.6290
 1389WAT     H2 4379   4.610   3.244   0.046  1.3043  0.1053 -0.1648
 1390WAT      O 4380   4.960   0.796   3.032  0.5451  0.0240 -0.4463
 1390WAT     H1 4381   4.888   0.846   3.070 -0.3474 -1.0217 -0.7154
 1390WAT     H2 4382   5.025   0.791   3.101 -0.5741 -0.8750  0.5828
 1391WAT      O 4383   4.484   0.701   2.136 -0.1255 -0.0866  0.0545
 1391WAT     H1 4384   4.511   0.709   2.228  0.9473 -1.2726 -0.1221
 1391WAT     H2 4385   4.434   0.620   2.133  0.8619 -0.6819 -0.6182
 1392WAT      O 4386   3.252   0.925   3.176  0.1560  0.4455  0.7194
 1392WAT     H1 4387   3.278   0.914   3.267  2.5786 -0.6706 -0.0107
 1392WAT     H2 4388   3.231   0.836   3.146  1.1331  0.5057 -0.2334
 1393WAT      O 4389   4.968   3.127   5.633  0.1457 -0.2279  0.4135
 1393WAT     H1 4390   4.994   3.104   5.722 -1.0363  1.4147  1.2342
 1393WAT     H2 4391   4.910   3.203   5.643  1.3723  1.1464 -1.8839
 1394WAT      O 4392   0.787   4.055   3.674 -0.1818 -0.2105 -0.1292
 1394WAT     H1 4393   0.765   3.964   3.652  1.6591 -0.6230 -0.3755
 1394WAT     H2 4394   0.765   4.063   3.767 -1.8213 -0.4021 -0.4583
 1395WAT      O 4395   4.381   4.468   3.368  0.0378  0.2166  0.1572
 1395WAT     H1 4396   4.451   4.409   3.337 -0.3457  0.2948 -0.8890
 1395WAT     H2 4397   4.410   4.495   3.455 -0.1934 -2.2382  1.0947
 1396WAT      O 4398   2.643   4.063   5.165 -0.1182  0.7424  0.4443
 1396WAT     H1 4399   2.649   4.030   5.076 -0.9330 -1.3457  1.0926
 1396WAT     H2 4400   2.551   4.088   5.175 -0.1885  0.3242  0.8915
 1397WAT      O 4401   0.910   4.225   2.144  0.5871 -0.3211  0.2770
 1397WAT     H1 4402   0.868   4.302   2.184  1.6645 -1.2890  3.5803
 1397WAT     H2 4403   0.849   4.153   2.160  0.6188 -0.5922 -0.7506
 1398WAT      O 4404   1.246   2.623   3.788  0.0252 -0.3307 -0.5988
 1398WAT     H1 4405   1.162   2.581   3.804 -1.0598  2.0654  0.6114
 1398WAT     H2 4406   1.294   2.611   3.869 -0.9948  2.0988  0.4643
 1399WAT      O 4407   0.317   3.156   1.096 -0.0227 -0.1354  0.0613
 1399WAT     H1 4408   0.412   3.167   1.094  0.1935 -1.7546 -1.5958
 1399WAT     H2 4409   0.284   3.220   1.033 -0.0360  0.3895  0.5963
 1400WAT      O 4410   1.964   3.508   4.754  0.1428 -0.3266  1.0001
 1400WAT     H1 4411   1.947   3.601   4.739 -0.4288 -0.4829  0.6591
 1400WAT     H2 4412   2.035   3.487   4.693  0.2564 -0.1242  1.0601
 1401WAT      O 4413   1.516   2.508   3.930  0.0171 -0.1778  0.8663
 1401WAT     H1 4414   1.465   2.429   3.947  0.1781 -0.6735 -0.7430
 1401WAT     H2 4415   1.600   2.493   3.973  0.0840 -0.9495  0.4873
 1402WAT      O 4416   4.914   3.330   0.011  0.2368 -0.0357  0.1294
 1402WAT     H1 4417   4.884   3.349   0.100 -0.6390 -1.1116  0.0851
 1402WAT     H2 4418   4.981   3.396  -0.006 -0.1484  0.6901  1.2843
 1403WAT      O 4419   3.907   2.792   0.811  0.4551  0.0162  0.4340
 1403WAT     H1 4420   3.830   2.832   0.771 -0.1181 -0.0379  1.4579
 1403WAT     H2 4421   3.942   2.861   0.868  2.0311  0.5619 -1.0934
 1404WAT      O 4422   3.699   1.564   4.750  0.5239  0.1186  0.0405
 1404WAT     H1 4423   3.660   1.478   4.737  0.1970  0.5370 -2.0315
 1404WAT     H2 4424   3.668   1.616   4.677  3.0864  1.1657 -0.4215
 1405WAT      O 4425   0.945   4.142   0.251  0.0403 -0.0493 -0.0585
 1405WAT     H1 4426   0.952   4.147   0.346 -0.5631 -0.0046 -0.0135
 1405WAT     H2 4427   1.026   4.099   0.223  1.2301  1.8097  0.2990
 1406WAT      O 4428   2.631   3.255   2.232  0.8627 -0.0245  0.0643
 1406WAT     H1 4429   2.563   3.321   2.247  1.1879 -0.0029  1.6458
 1406WAT     H2 4430   2.657   3.267   2.140 -1.3921 -0.1775 -0.6460
 1407WAT      O 4431   1.603   3.796   5.764 -0.3538  0.2501 -0.0728
 1407WAT     H1 4432   1.524   3.844   5.739 -1.1440  0.6958  2.9475
 1407WAT     H2 4433   1.595   3.712   5.719 -2.2584  0.5228 -0.3211
 1408WAT      O 4434   3.342   3.048   0.118  0.3043  0.4510 -0.1855
 1408WAT     H1 4435   3.287   3.120   0.088 -0.1473  0.5377  0.7899
 1408WAT     H2 4436   3.412   3.090   0.167 -1.1358  0.2060  2.2565
 1409WAT      O 4437   0.619   3.519   5.706  0.4064 -0.6332  0.2110
 1409WAT     H1 4438   0.612   3.446   5.644  1.2585  0.2079 -0.9234
 1409WAT     H2 4439   0.655   3.591   5.654  0.9996  0.1553  1.6634
 1410WAT      O 4440   4.548   1.410   3.973 -0.2365 -0.2739  0.7459
 1410WAT     H1 4441   4.585   1.431   3.888 -0.7543  1.3097  0.8896
 1410WAT     H2 4442   4.600   1.335   4.004  0.0844 -0.7365 -0.8506
 1411WAT      O 4443   1.415   1.096   1.624  0.1575 -0.3223  0.5097
 1411WAT     H1 4444   1.451   1.024   1.676 -0.3213 -1.1271 -0.2458
 1411WAT     H2 4445   1.321   1.089   1.635  0.0547 -0.4562 -0.4022
 1412WAT      O 4446   4.249   1.803   4.315  0.0104  0.0086  0.1482
 1412WAT     H1 4447   4.215   1.744   4.382  0.4114 -1.3957 -0.8128
 1412WAT     H2 4448   4.189   1.792   4.241  1.4579 -1.1367 -0.9224
 1413WAT      O 4449   1.230   3.493   4.421 -0.3451 -0.6945  0.1428
 1413WAT     H1 4450   1.262   3.510   4.332 -0.7415 -1.2683 -0.1192
 1413WAT     H2 4451   1.172   3.568   4.439 -1.2114 -1.1687 -0.5656
 1414WAT      O 4452   3.954   4.545   1.865 -0.2094 -0.3031 -0.4057
 1414WAT     H1 4453   4.042   4.529   1.899  0.5661 -0.4635 -2.3503
 1414WAT     H2 4454   3.957   4.634   1.830 -0.5979 -0.5653 -1.1287
 1415WAT      O 4455   2.274   4.490   3.786 -0.1558  0.0645 -0.7094
 1415WAT     H1 4456   2.213   4.479   3.860  1.3299  2.7071  1.1089
 1415WAT     H2 4457   2.218   4.502   3.710 -1.8651  0.4301  0.5530
 1416WAT      O 4458   2.586   2.602   1.134 -0.1924 -0.1320 -0.4332
 1416WAT     H1 4459   2.581   2.530   1.197 -0.7764  0.6212  0.4092
 1416WAT     H2 4460   2.563   2.680   1.185 -0.5685  0.5150 -1.5571
 1417WAT      O 4461   1.901   3.325   0.858 -0.7536  0.1647  0.1079
 1417WAT     H1 4462   1.952   3.388   0.807  0.1569 -1.5595 -1.2353
 1417WAT     H2 4463   1.961   3.296   0.926 -0.8063  0.0014  0.0844
 1418WAT      O 4464   2.956   1.311   3.788  0.6662  0.2109  0.5913
 1418WAT     H1 4465   3.035   1.356   3.818  0.3393 -0.1303  2.0328
 1418WAT     H2 4466   2.982   1.220   3.776  0.8442  0.3839 -0.3964
 1419WAT      O 4467   3.948   4.040   2.002  0.6359 -0.2579 -0.1739
 1419WAT     H1 4468   3.857   4.046   2.033  0.4103 -0.6179 -0.7506
 1419WAT     H2 4469   3.985   4.126   2.022  0.3994 -0.3562  0.7611
 1420WAT      O 4470   1.500   4.316   2.396  0.3438  0.4305 -0.1316
 1420WAT     H1 4471   1.543   4.259   2.461  0.1126  0.5939  0.1674
 1420WAT     H2 4472   1.506   4.404   2.434 -0.5688  0.4069  0.0835
 1421WAT      O 4473   4.947   3.388   1.427 -0.2368 -0.1703 -0.6791
 1421WAT     H1 4474   4.878   3.453   1.443  0.0767  0.0420 -0.1814
 1421WAT     H2 4475   4.988   3.416   1.346  1.3771  1.5770  0.6505
 1422WAT      O 4476   1.879   2.070   2.340  0.0646 -0.1590 -0.0703
 1422WAT     H1 4477   1.803   2.017   2.364  0.4257 -0.4824  0.3811
 1422WAT     H2 4478   1.950   2.034   2.392  0.0898  1.5043  1.1473
 1423WAT      O 4479   2.621   0.030   2.881  0.0548 -0.2451 -0.3578
 1423WAT     H1 4480   2.639   0.051   2.789  1.1025 -2.4307 -0.7379
 1423WAT     H2 4481   2.629  -0.066   2.885  1.1670 -0.1306  2.2247
 1424WAT      O 4482   3.003   0.729   3.552 -0.0372 -0.5352  0.2121
 1424WAT     H1 4483   2.964   0.669   3.488  1.1769 -0.2318 -0.8688
 1424WAT     H2 4484   2.929   0.775   3.591 -0.8053 -0.0656 -1.6695
 1425WAT      O 4485   1.196   3.222   3.843  0.8758  0.0687 -0.0840
 1425WAT     H1 4486   1.142   3.283   3.893 -2.8013 -2.5062 -0.5663
 1425WAT     H2 4487   1.214   3.267   3.761 -0.8622  0.9219 -0.0308
 1426WAT      O 4488   3.796   4.366   1.740 -0.3115 -0.6839  0.2427
 1426WAT     H1 4489   3.820   4.290   1.793 -0.1456 -1.1499 -0.4850
 1426WAT     H2 4490   3.835   4.440   1.786  0.0433 -1.1096  0.6401
 1427WAT      O 4491   3.332   5.640   2.493 -0.5572  0.1896 -0.4392
 1427WAT     H1 4492   3.238   5.660   2.498 -0.9257 -1.2610 -1.0738
 1427WAT     H2 4493   3.362   5.645   2.583 -1.8012 -1.7367  0.1510
 1428WAT      O 4494   3.419   4.352   2.701 -0.0295  0.0360  0.0108
 1428WAT     H1 4495   3.390   4.439   2.727 -1.3526 -0.0828 -0.9834
 1428WAT     H2 4496   3.494   4.335   2.757  1.1336  2.3711 -0.6824
 1429WAT      O 4497   4.350   3.166   1.668 -0.2822  0.8584  0.0785
 1429WAT     H1 4498   4.256   3.148   1.674 -0.4180  1.8260  3.4866
 1429WAT     H2 4499   4.391   3.080   1.659 -1.4435  0.4629 -1.9922
 1430WAT      O 4500   3.005   2.633   4.505  0.3194  0.0699  0.0453
 1430WAT     H1 4501   2.932   2.687   4.534  0.5299  0.8389 -0.8176
 1430WAT     H2 4502   3.069   2.695   4.471  0.1854 -0.7393 -1.8338
 1431WAT      O 4503   2.960   4.709   2.347 -0.4331 -0.0203  0.2336
 1431WAT     H1 4504   2.876   4.683   2.310  0.5414 -1.5222 -1.1122
 1431WAT     H2 4505   2.961   4.670   2.435 -0.5674 -1.3462 -0.3200
 1432WAT      O 4506   4.233   5.654   4.179 -0.2743 -0.5168 -0.6401
 1432WAT     H1 4507   4.316   5.608   4.170 -0.1533 -0.1665 -1.3711
 1432WAT     H2 4508   4.166   5.588   4.161 -0.1315 -0.6282 -0.7620
 1433WAT      O 4509   4.128   1.308   2.450 -0.0823 -0.2907  0.5153
 1433WAT     H1 4510   4.101   1.245   2.382 -1.0870  1.2288 -0.5586
 1433WAT     H2 4511   4.185   1.370   2.403 -0.9962  0.9311  0.9750
 1434WAT      O 4512   2.954   4.066   3.177  0.4252  0.1141 -0.4828
 1434WAT     H1 4513   2.979   4.149   3.136 -0.4006  0.4537 -0.3311
 1434WAT     H2 4514   2.909   4.092   3.257  2.9786 -0.5586  1.2746
 1435WAT      O 4515   4.496   1.004   1.564 -0.1460  0.0057  0.4680
 1435WAT     H1 4516   4.460   1.086   1.530  1.1061  0.4428  0.1457
 1435WAT     H2 4517   4.419   0.952   1.587 -1.0184  0.3478 -1.4906
 1436WAT      O 4518   0.237   5.380   3.772  0.2762 -0.2860  0.1286
 1436WAT     H1 4519   0.261   5.406   3.683 -0.2645 -1.6514 -0.4507
 1436WAT     H2 4520   0.319   5.375   3.820  0.5193  1.0180 -0.1203
 1437WAT      O 4521   0.126   4.662   3.175 -0.3439 -0.1793  0.5265
 1437WAT     H1 4522   0.143   4.754   3.195  0.3742 -0.1687 -0.0868
 1437WAT     H2 4523   0.052   4.664   3.115 -0.0861  0.0224  0.2134
 1438WAT      O 4524   1.345   5.123   1.489 -0.0511  0.0443  0.3309
 1438WAT     H1 4525   1.400   5.059   1.443  0.4911  0.6190  0.1678
 1438WAT     H2 4526   1.384   5.130   1.576  0.3607  0.7250  0.0957
 1439WAT      O 4527   3.297   4.150   3.440  0.5932  0.2651 -0.1465
 1439WAT     H1 4528   3.342   4.094   3.503  1.4362  2.6100  1.4818
 1439WAT     H2 4529   3.204   4.136   3.458  0.7545 -1.1774 -0.3442
 1440WAT      O 4530   4.546   4.598   2.451 -0.0966  0.0053 -0.2564
 1440WAT     H1 4531   4.532   4.629   2.361 -0.1037  2.0921  0.4091
 1440WAT     H2 4532   4.459   4.597   2.490  0.0147 -0.0385 -0.0083
 1441WAT      O 4533   2.457   1.155   4.239  0.1229  0.2790  0.2694
 1441WAT     H1 4534   2.504   1.186   4.161  1.5003  1.2016  1.4223
 1441WAT     H2 4535   2.371   1.130   4.206  0.8134  0.2082 -1.6285
 1442WAT      O 4536   3.362   0.008   2.195  0.9114  0.3038 -0.5470
 1442WAT     H1 4537   3.425   0.079   2.203  0.1693  0.8258  1.0160
 1442WAT     H2 4538   3.338  -0.013   2.285 -0.5483 -0.4022 -1.0746
 1443WAT      O 4539   2.594   4.970   4.061  0.7804  0.5297 -0.4567
 1443WAT     H1 4540   2.643   4.947   4.140  0.4090  0.6033 -0.2026
 1443WAT     H2 4541   2.562   5.059   4.077 -1.5590 -0.4072  0.4573
 1444WAT      O 4542   3.118   4.661   1.247 -0.4083  0.2396 -0.3242
 1444WAT     H1 4543   3.206   4.626   1.236 -0.9535 -0.6320 -2.1956
 1444WAT     H2 4544   3.106   4.666   1.342  0.9582 -1.3853 -0.0252
 1445WAT      O 4545   4.928   3.272   3.472  0.4033  0.2656  0.5275
 1445WAT     H1 4546   4.986   3.341   3.441 -0.4087  1.0038  0.6041
 1445WAT     H2 4547   4.888   3.236   3.393  1.6535 -0.9126  0.3860
 1446WAT      O 4548   2.142   3.825   4.012 -0.1738  0.1319  0.1448
 1446WAT     H1 4549   2.225   3.779   4.024 -0.0067  0.2695 -0.4404
 1446WAT     H2 4550   2.078   3.755   4.001  0.3496 -0.0307 -2.6214
 1447WAT      O 4551   3.869   4.878   3.917 -0.3963 -0.2219 -0.0962
 1447WAT     H1 4552   3.853   4.972   3.910  0.8503  0.0936  0.9174
 1447WAT     H2 4553   3.958   4.866   3.884 -1.0263 -1.2779 -1.5269
 1448WAT      O 4554   1.093   3.908   4.557  0.5327  0.5616  0.2636
 1448WAT     H1 4555   1.174   3.912   4.505  0.8684  1.2608  0.8230
 1448WAT     H2 4556   1.117   3.856   4.633  0.4653  0.8050  0.4510
 1449WAT      O 4557   4.615   5.561   2.770  0.4829 -0.1091 -0.1085
 1449WAT     H1 4558   4.534   5.570   2.720  0.5697 -0.0625 -0.2412
 1449WAT     H2 4559   4.606   5.478   2.816 -0.0180  0.3015  0.5601
 1450WAT      O 4560   3.222   3.933   3.847  0.4860  0.7407 -0.2415
 1450WAT     H1 4561   3.136   3.974   3.839 -0.5746 -1.4591 -0.9263
 1450WAT     H2 4562   3.206   3.856   3.900  2.5362  1.4750  1.5771
 1451WAT      O 4563   1.628   2.911   2.612  0.3719 -0.8105 -0.5694
 1451WAT     H1 4564   1.706   2.861   2.633  0.3913  0.3737  2.6868
 1451WAT     H2 4565   1.556   2.863   2.653 -0.2626 -0.4831 -1.2571
 1452WAT      O 4566   1.328   3.850   4.409  0.0503  0.1681  0.0735
 1452WAT     H1 4567   1.331   3.796   4.330  0.3299  0.1364  0.1036
 1452WAT     H2 4568   1.393   3.810   4.468  0.6338  0.8464 -0.1029
 1453WAT      O 4569   3.681   1.764   2.802  0.1981 -0.0795  0.0287
 1453WAT     H1 4570   3.589   1.780   2.823 -0.4281 -1.1117 -1.7250
 1453WAT     H2 4571   3.687   1.775   2.708  1.5844 -1.3348 -0.0801
 1454WAT      O 4572   2.360   0.491   1.971  0.2073  1.0248  0.1453
 1454WAT     H1 4573   2.337   0.402   1.944 -3.3961  1.3110  1.7913
 1454WAT     H2 4574   2.390   0.482   2.061 -2.8830  1.6219  1.3525
 1455WAT      O 4575   2.374   1.466   4.127 -0.1350  0.4810 -0.0126
 1455WAT     H1 4576   2.392   1.435   4.216 -2.0897  0.8735  0.5768
 1455WAT     H2 4577   2.300   1.527   4.138 -0.3330  0.6223 -1.8933
 1456WAT      O 4578   4.480   2.758   3.249 -0.2793  0.0847  0.0349
 1456WAT     H1 4579   4.398   2.709   3.254 -0.5831  0.3275 -1.7042
 1456WAT     H2 4580   4.501   2.781   3.339 -2.6003  0.7913  0.4594
 1457WAT      O 4581   4.328   3.595   3.773  0.4811  0.4899  0.8778
 1457WAT     H1 4582   4.398   3.586   3.709  0.1710  2.3225  0.2009
 1457WAT     H2 4583   4.273   3.665   3.738 -0.6393  0.3864  2.3301
 1458WAT      O 4584   4.444   5.180   2.006  0.4234  0.5736 -0.4855
 1458WAT     H1 4585   4.470   5.162   1.916 -1.5453  0.1404 -1.0279
 1458WAT     H2 4586   4.378   5.249   1.998 -1.6437 -1.1952  0.3237
 1459WAT      O 4587   4.777   5.308   1.637  0.4272  0.0259  0.1474
 1459WAT     H1 4588   4.755   5.387   1.587  0.7324  0.7971  1.1912
 1459WAT     H2 4589   4.796   5.340   1.726  0.7042 -1.2058  0.5569
 1460WAT      O 4590   2.861   1.567   3.048 -0.3842  0.5789  0.3948
 1460WAT     H1 4591   2.844   1.539   3.138 -0.3629  2.4181  1.0112
 1460WAT     H2 4592   2.775   1.590   3.013 -0.4484 -0.5400 -0.2284
 1461WAT      O 4593   3.412   3.741   2.144  0.0319 -0.0511  0.6234
 1461WAT     H1 4594   3.495   3.695   2.155 -0.1938 -1.0436 -1.2561
 1461WAT     H2 4595   3.350   3.690   2.196  0.2119 -0.5906  0.3221
 1462WAT      O 4596   3.044   5.577   2.743  0.2178  0.2544 -0.2876
 1462WAT     H1 4597   3.112   5.640   2.765  1.6658 -0.5853 -2.1635
 1462WAT     H2 4598   3.088   5.492   2.744 -1.0646 -0.4421 -0.4727
 1463WAT      O 4599   4.419   1.413   1.658  0.9100  0.3713  0.3800
 1463WAT     H1 4600   4.441   1.506   1.659  0.1662  0.5858  2.3964
 1463WAT     H2 4601   4.357   1.402   1.731 -1.5926 -1.1125 -1.7797
 1464WAT      O 4602   2.788   1.882   2.476  0.3873 -0.0655  0.5178
 1464WAT     H1 4603   2.804   1.853   2.566  0.5307  0.8416  0.7914
 1464WAT     H2 4604   2.819   1.972   2.473  0.4851 -0.1133 -0.4778
 1465WAT      O 4605   3.499   3.703   1.211  0.4874 -0.0466  0.1618
 1465WAT     H1 4606   3.407   3.676   1.219  0.4278  0.1896  0.2597
 1465WAT     H2 4607   3.548   3.633   1.254  0.4955 -1.1836 -1.5834
 1466WAT      O 4608   2.123   4.734   2.790 -0.1730  0.1047 -0.8333
 1466WAT     H1 4609   2.122   4.662   2.853  0.4395  1.7659  1.1902
 1466WAT     H2 4610   2.211   4.731   2.752  0.4500  0.7682  0.4985
 1467WAT      O 4611   2.720   0.332   2.299 -0.1615  0.0270 -0.5956
 1467WAT     H1 4612   2.815   0.330   2.286 -0.0020 -0.0405  0.4983
 1467WAT     H2 4613   2.696   0.240   2.313 -0.1993  0.1712  0.3478
 1468WAT      O 4614   4.710   3.173   5.015 -0.7594 -0.2226 -0.0756
 1468WAT     H1 4615   4.696   3.264   4.988 -0.4843 -0.3655 -0.7373
 1468WAT     H2 4616   4.798   3.153   4.983 -1.3961 -1.1914 -1.2798
 1469WAT      O 4617   3.895   2.708   0.462  0.1636  0.1892  0.6018
 1469WAT     H1 4618   3.974   2.730   0.511  1.5744  0.0642 -1.5024
 1469WAT     H2 4619   3.860   2.792   0.434 -0.8822  0.2875  2.0910
 1470WAT      O 4620   2.446   3.857   3.609 -0.2505  0.1804 -0.1727
 1470WAT     H1 4621   2.499   3.835   3.686  0.4143 -0.0197 -0.6806
 1470WAT     H2 4622   2.384   3.785   3.602 -1.0874  0.7672  0.8473
 1471WAT      O 4623   1.576   0.961   4.217 -0.1175 -0.0209  0.0140
 1471WAT     H1 4624   1.565   0.889   4.155 -0.6224  0.5658 -0.5929
 1471WAT     H2 4625   1.667   0.989   4.204  0.5871 -1.5313  1.3634
 1472WAT      O 4626   2.372   5.024   1.754  0.0890 -0.2181  0.0302
 1472WAT     H1 4627   2.448   4.985   1.798  1.3796  0.9867 -1.0248
 1472WAT     H2 4628   2.395   5.116   1.744 -0.5536 -0.2381 -2.2382
 1473WAT      O 4629   1.194   2.343   1.185 -0.5683  0.0644 -0.2024
 1473WAT     H1 4630   1.200   2.424   1.236 -1.4030 -0.3541  0.5729
 1473WAT     H2 4631   1.257   2.356   1.114  0.2152  0.8824  0.6108
 1474WAT      O 4632   0.103   3.438   3.335 -0.4768 -0.0548 -0.3629
 1474WAT     H1 4633   0.099   3.510   3.273 -0.0809 -0.8795 -1.3755
 1474WAT     H2 4634   0.178   3.458   3.391  1.9072 -1.3483 -2.8502
 1475WAT      O 4635   4.003   2.572   4.893  0.0459  0.2356 -0.3924
 1475WAT     H1 4636   3.983   2.560   4.800  0.1706 -0.3944 -0.3415
 1475WAT     H2 4637   4.036   2.661   4.899 -2.6503  1.3397 -0.5145
 1476WAT      O 4638   1.608   4.743   1.307 -0.1145 -0.9525 -0.2378
 1476WAT     H1 4639   1.661   4.813   1.268  0.8999 -2.4570 -1.7350
 1476WAT     H2 4640   1.527   4.786   1.335  0.7019  0.8942 -0.5931
 1477WAT      O 4641   2.657   4.678   1.043  0.0098 -0.1300 -0.0287
 1477WAT     H1 4642   2.717   4.617   0.999  0.1263 -0.9857  1.2457
 1477WAT     H2 4643   2.670   4.660   1.136 -1.1610  0.7186  0.3143
 1478WAT      O 4644   3.856   0.255   3.489  0.1382  0.6893  0.0371
 1478WAT     H1 4645   3.918   0.184   3.508  0.6085  1.5999  2.2007
 1478WAT     H2 4646   3.884   0.327   3.545 -2.2105  1.5163  0.2808
 1479WAT      O 4647   4.105   3.263   5.458 -0.0291 -0.2148 -0.3299
 1479WAT     H1 4648   4.066   3.179   5.481 -1.2822 -0.2915 -2.4909
 1479WAT     H2 4649   4.031   3.324   5.457  0.7802  0.8431  0.6987
 1480WAT      O 4650   3.517   4.772   2.873 -0.2560 -0.1767 -0.1797
 1480WAT     H1 4651   3.530   4.853   2.923 -1.5241 -0.0928  0.0424
 1480WAT     H2 4652   3.572   4.707   2.916 -0.5586  0.1481  0.7094
 1481WAT      O 4653   2.085   3.958   2.147 -1.0344 -0.4939 -0.6433
 1481WAT     H1 4654   2.172   3.968   2.185 -1.6873  1.4481  0.4679
 1481WAT     H2 4655   2.102   3.935   2.055  0.5822 -3.0725  0.1824
 1482WAT      O 4656   4.070   3.920   2.634 -0.1288 -0.1557 -0.2978
 1482WAT     H1 4657   3.988   3.928   2.586 -0.0180  0.1201 -0.4429
 1482WAT     H2 4658   4.080   3.826   2.649  0.0094 -0.2776 -1.1169
 1483WAT      O 4659   3.884   4.660   3.705  0.3106  0.1198  0.2415
 1483WAT     H1 4660   3.850   4.670   3.794 -1.2004  0.3006 -0.3162
 1483WAT     H2 4661   3.818   4.605   3.661  0.5793  0.7615 -0.9993
 1484WAT      O 4662   3.007   3.888   3.365  0.3960 -0.1599  0.0376
 1484WAT     H1 4663   3.029   3.949   3.436  1.0169  0.9349 -1.0521
 1484WAT     H2 4664   3.000   3.944   3.288  0.0916 -1.3742 -0.8297
 1485WAT      O 4665   2.025   5.055   1.589  0.0380 -0.6313  0.1620
 1485WAT     H1 4666   2.100   5.089   1.540 -0.8148  0.9754 -0.1177
 1485WAT     H2 4667   2.049   5.068   1.681 -0.1501  0.5216  0.0628
 1486WAT      O 4668   3.848   0.023   4.118  0.7569  0.1580  0.2046
 1486WAT     H1 4669   3.897  -0.057   4.105  0.7011  0.1993 -0.2909
 1486WAT     H2 4670   3.915   0.091   4.128  0.8191 -0.0812  1.6003
 1487WAT      O 4671   1.117   4.447   2.276  0.1692 -0.0474  0.4625
 1487WAT     H1 4672   1.167   4.370   2.301 -1.1639 -1.3759 -0.7652
 1487WAT     H2 4673   1.156   4.476   2.194 -0.1532 -0.2073  0.2519
 1488WAT      O 4674   3.248   5.631   3.595  0.1560 -0.4089 -0.0674
 1488WAT     H1 4675   3.279   5.650   3.507 -1.1421 -1.8214 -0.8867
 1488WAT     H2 4676   3.222   5.538   3.592 -0.5354 -0.3079  1.5953
 1489WAT      O 4677   0.249   3.810   1.424 -0.2142 -0.0327 -0.2808
 1489WAT     H1 4678   0.323   3.830   1.366 -0.6955  0.3297 -0.7792
 1489WAT     H2 4679   0.290   3.777   1.504  0.4574 -0.7324 -0.8880
 1490WAT      O 4680   3.850   3.905   2.943  0.7373  0.3150  0.4188
 1490WAT     H1 4681   3.759   3.899   2.916  0.6387 -0.4226  0.8816
 1490WAT     H2 4682   3.893   3.830   2.902  0.9622  0.2078  0.8426
 1491WAT      O 4683   3.551   3.559   3.164 -0.4777  0.5819  0.0978
 1491WAT     H1 4684   3.564   3.545   3.258 -1.3644  1.1822  0.3194
 1491WAT     H2 4685   3.527   3.473   3.130  2.0985 -0.1715 -0.0146
 1492WAT      O 4686   3.009   1.059   1.402 -0.2537  0.7870  0.2814
 1492WAT     H1 4687   2.957   1.128   1.361 -0.1242  0.9655  0.4185
 1492WAT     H2 4688   2.987   1.064   1.495 -0.2752  0.6162  0.2859
 1493WAT      O 4689   3.908   5.504   3.163  0.1852  0.1738 -0.0768
 1493WAT     H1 4690   3.891   5.483   3.072 -1.7430  0.1147  0.2580
 1493WAT     H2 4691   3.914   5.600   3.165 -1.9179  0.3467  0.0151
 1494WAT      O 4692   1.269   3.572   5.576 -0.2863  0.3067  0.1735
 1494WAT     H1 4693   1.239   3.584   5.666 -1.4562  0.4258 -0.2126
 1494WAT     H2 4694   1.224   3.493   5.546  0.9765 -0.4013  0.0358
 1495WAT      O 4695   2.741   3.978   5.618  0.0739 -0.1240  0.6836
 1495WAT     H1 4696   2.832   3.989   5.647 -0.3563  1.6319  1.5208
 1495WAT     H2 4697   2.720   4.062   5.575 -1.4763 -0.0775  1.4768
 1496WAT      O 4698   3.010   2.405   1.001 -0.0104 -0.8398  0.3177
 1496WAT     H1 4699   2.945   2.463   0.962  0.7481 -0.3423 -0.2461
 1496WAT     H2 4700   3.091   2.426   0.954  0.4334 -1.8406  0.6100
 1497WAT      O 4701   2.583   1.705   2.427 -0.1962  0.6908 -0.3973
 1497WAT     H1 4702   2.661   1.759   2.443 -0.2198  0.9224 -1.0346
 1497WAT     H2 4703   2.601   1.663   2.343  0.0638 -0.7321  0.3345
 1498WAT      O 4704   2.543   0.399   4.439 -0.0150 -0.0695  0.0550
 1498WAT     H1 4705   2.573   0.381   4.529 -0.0803  0.3850  0.1675
 1498WAT     H2 4706   2.510   0.488   4.442 -1.4056 -0.5536 -0.0567
 1499WAT      O 4707   4.455   2.660   4.377  0.2674 -0.1594  0.0658
 1499WAT     H1 4708   4.390   2.629   4.439  0.8501  0.5862  1.0708
 1499WAT     H2 4709   4.477   2.749   4.407  1.9853 -0.5177 -0.0387
 1500WAT      O 4710   3.612   0.080   3.406 -0.0039 -0.1152 -0.3809
 1500WAT     H1 4711   3.692   0.125   3.432  1.4271 -0.5416 -3.5010
 1500WAT     H2 4712   3.642  -0.003   3.369 -1.6246  0.3149 -2.9629
 1501WAT      O 4713   4.126   2.209   5.553  0.3938  0.3430  0.3548
 1501WAT     H1 4714   4.054   2.270   5.538 -1.1492 -0.4232  3.7109
 1501WAT     H2 4715   4.204   2.265   5.562 -0.3209  1.4598 -0.2215
 1502WAT      O 4716   2.659   5.022   3.655 -0.5400  0.0982 -0.2987
 1502WAT     H1 4717   2.611   5.055   3.732 -1.1414  0.1218 -0.6738
 1502WAT     H2 4718   2.650   5.092   3.591  0.2978  0.2437 -0.2607
 1503WAT      O 4719   3.260   2.047   0.643  0.0535  0.6239  0.0536
 1503WAT     H1 4720   3.295   2.067   0.556  3.3150 -1.1742  0.7839
 1503WAT     H2 4721   3.309   2.104   0.702 -1.0370  0.7473  0.8714
 1504WAT      O 4722   0.924   4.260   0.908 -0.0593 -0.4764 -0.2154
 1504WAT     H1 4723   0.858   4.208   0.861  0.0351 -1.1610  0.3906
 1504WAT     H2 4724   1.000   4.260   0.851 -0.3130 -0.3712 -0.5559
 1505WAT      O 4725   1.185   3.843   4.048  0.2396  0.6273  0.5808
 1505WAT     H1 4726   1.096   3.841   4.083 -0.8247  2.6471 -1.7607
 1505WAT     H2 4727   1.206   3.936   4.042  1.7565  0.2421 -0.7131
 1506WAT      O 4728   0.440   3.540   3.113 -0.0633 -0.2126  0.1448
 1506WAT     H1 4729   0.529   3.509   3.098  0.3333  1.3591 -0.9172
 1506WAT     H2 4730   0.387   3.490   3.051  0.0584 -1.0892  0.7193
 1507WAT      O 4731   3.052   5.037   1.754 -0.4170 -0.0992  0.1635
 1507WAT     H1 4732   3.049   4.951   1.795  0.5436 -0.2528 -0.0627
 1507WAT     H2 4733   3.081   5.096   1.824 -0.0531 -0.1416  0.0513
 1508WAT      O 4734   2.847   1.171   2.708  0.6329  0.4204  0.3089
 1508WAT     H1 4735   2.797   1.246   2.742  2.1756  1.7438 -0.1982
 1508WAT     H2 4736   2.935   1.206   2.695  0.8941 -0.9119 -1.9284
 1509WAT      O 4737   4.677   4.678   3.636  0.0309  0.2571 -0.5750
 1509WAT     H1 4738   4.702   4.657   3.726 -2.9100  0.3059  0.3564
 1509WAT     H2 4739   4.620   4.605   3.609  1.1162  0.0590 -2.5880
 1510WAT      O 4740   4.224   3.962   3.703 -0.1373 -0.0658 -0.5682
 1510WAT     H1 4741   4.275   4.044   3.701 -0.2361 -0.0120 -1.0425
 1510WAT     H2 4742   4.255   3.917   3.782  1.6655 -0.6877 -1.5668
 1511WAT      O 4743   0.172   0.240   2.766 -0.3558  0.0081  0.1834
 1511WAT     H1 4744   0.100   0.205   2.714 -1.6353  1.0336  1.1936
 1511WAT     H2 4745   0.162   0.335   2.759  0.6135  0.1618  0.7355
 1512WAT      O 4746   1.094   2.600   1.913  0.1861  0.8206  0.2057
 1512WAT     H1 4747   1.078   2.515   1.873 -0.5775  1.1210 -0.1542
 1512WAT     H2 4748   1.012   2.648   1.900  0.4811  1.4827  0.7246
 1513WAT      O 4749   0.977   2.605   1.002 -0.0644  0.0612 -0.6954
 1513WAT     H1 4750   1.054   2.602   1.059  0.9382  0.5081 -1.9924
 1513WAT     H2 4751   0.950   2.697   1.003  0.6093  0.2812 -1.7673
 1514WAT      O 4752   1.460   4.198   3.336 -0.4611 -0.2421  0.3718
 1514WAT     H1 4753   1.385   4.254   3.321 -1.1426 -1.3700 -0.6296
 1514WAT     H2 4754   1.466   4.144   3.257  1.3905 -0.2001  0.4292
 1515WAT      O 4755   3.311   5.103   1.987 -0.5167  0.2629 -0.0060
 1515WAT     H1 4756   3.220   5.116   2.012 -0.6845  1.2681 -1.0331
 1515WAT     H2 4757   3.334   5.017   2.021 -1.2494  0.7847  1.9491
 1516WAT      O 4758   0.439   0.912   1.733  0.3281 -0.5495  0.0527
 1516WAT     H1 4759   0.415   0.985   1.790  1.4982 -0.0462 -0.0685
 1516WAT     H2 4760   0.372   0.846   1.748 -0.3662  0.2822  0.6798
 1517WAT      O 4761   2.084   0.479   3.281 -0.1909  0.4953  0.4727
 1517WAT     H1 4762   2.111   0.510   3.194 -0.3528  1.7845  0.8618
 1517WAT     H2 4763   1.998   0.518   3.295 -0.3416 -0.0309  1.0521
 1518WAT      O 4764   3.899   2.543   5.665  0.1260  0.3408 -0.3887
 1518WAT     H1 4765   3.987   2.523   5.698 -0.9962 -2.5498  1.1322
 1518WAT     H2 4766   3.893   2.494   5.583  0.1988  1.2611 -0.9574
 1519WAT      O 4767   3.047   3.839   0.290  0.2084  0.0793  0.6446
 1519WAT     H1 4768   3.116   3.870   0.231  2.0335 -1.3289  1.9218
 1519WAT     H2 4769   3.046   3.904   0.361 -1.6536  1.5061 -0.5693
 1520WAT      O 4770   3.881   4.614   4.248  0.2004  0.4386  0.3333
 1520WAT     H1 4771   3.823   4.607   4.324 -0.6937  1.9835 -0.1507
 1520WAT     H2 4772   3.823   4.607   4.172  1.1818 -2.0049 -0.2952
 1521WAT      O 4773   4.374   4.647   2.677 -0.0314  0.3595 -0.6002
 1521WAT     H1 4774   4.322   4.724   2.700  2.2038  1.5517  0.8273
 1521WAT     H2 4775   4.355   4.583   2.746  0.6674  0.9365  0.1376
 1522WAT      O 4776   2.226   1.147   2.652 -0.1128 -0.3615 -0.2699
 1522WAT     H1 4777   2.257   1.233   2.625 -1.5946  0.4894  0.6275
 1522WAT     H2 4778   2.132   1.149   2.637 -0.7106 -0.5843  2.7999
 1523WAT      O 4779   3.723   3.835   2.633 -0.1386 -0.3216 -0.4473
 1523WAT     H1 4780   3.746   3.775   2.562 -1.2873 -1.3503  0.0204
 1523WAT     H2 4781   3.731   3.782   2.712  3.1212  1.3348  0.5040
 1524WAT      O 4782   3.646   0.588   2.385 -0.0426  0.2104  0.4266
 1524WAT     H1 4783   3.682   0.560   2.301  0.5730  1.1685  0.3638
 1524WAT     H2 4784   3.577   0.651   2.362 -1.9426 -1.6940  0.5308
 1525WAT      O 4785   0.631   2.396   2.832  0.4413  0.2506  0.6344
 1525WAT     H1 4786   0.680   2.455   2.775 -0.1422 -0.0614 -0.2075
 1525WAT     H2 4787   0.679   2.398   2.915  2.5155 -0.8690 -0.4583
 1526WAT      O 4788   2.313   0.232   1.915 -0.0983  0.1361 -0.0629
 1526WAT     H1 4789   2.262   0.233   1.835 -1.3281  2.2787  0.6736
 1526WAT     H2 4790   2.251   0.208   1.984  0.9735 -1.8556  0.2873
 1527WAT      O 4791   3.853   3.385   4.176  0.3200 -0.2161 -0.0511
 1527WAT     H1 4792   3.874   3.463   4.124 -0.4652  1.5796  2.1554
 1527WAT     H2 4793   3.921   3.382   4.243 -0.2787 -0.7935  0.5459
 1528WAT      O 4794   4.609   4.019   3.528 -0.2953 -0.1040  0.1592
 1528WAT     H1 4795   4.656   3.950   3.577  0.5099 -1.0014 -1.7768
 1528WAT     H2 4796   4.537   3.973   3.486 -1.0588  0.6889  0.5680
 1529WAT      O 4797   1.590   3.114   3.692 -0.0928  0.3051 -0.5214
 1529WAT     H1 4798   1.599   3.060   3.614  2.8249  0.6236 -0.5125
 1529WAT     H2 4799   1.600   3.204   3.660 -2.7944  0.7913 -0.2426
 1530WAT      O 4800   3.343   5.132   3.242  0.6071  0.5159  0.4222
 1530WAT     H1 4801   3.380   5.207   3.195 -1.5252  1.3782  0.0358
 1530WAT     H2 4802   3.316   5.072   3.173 -0.3465  0.7090  0.6212
 1531WAT      O 4803   2.746   1.876   0.217  0.1051 -0.3730  0.2019
 1531WAT     H1 4804   2.662   1.874   0.263 -0.5648 -2.0487 -0.9696
 1531WAT     H2 4805   2.724   1.853   0.127  1.4833  1.9361 -0.8234
 1532WAT      O 4806   0.779   0.751   2.813  0.5874 -0.1444  0.0691
 1532WAT     H1 4807   0.862   0.722   2.849  0.1503 -0.1732  1.0706
 1532WAT     H2 4808   0.715   0.736   2.883 -0.2644 -0.1394 -0.6856
 1533WAT      O 4809   2.834   3.363   1.699 -0.5472 -0.5284  0.3931
 1533WAT     H1 4810   2.808   3.441   1.650  1.3849  0.3924  0.7159
 1533WAT     H2 4811   2.892   3.316   1.640  1.6346  0.4826  1.6101
 1534WAT      O 4812   2.922   2.052   2.203 -0.2048  0.0200 -0.0116
 1534WAT     H1 4813   2.936   2.101   2.284  1.1557  0.5851 -0.5628
 1534WAT     H2 4814   2.827   2.042   2.198 -0.4549  1.7393  0.6352
 1535WAT      O 4815   2.886   4.171   2.243 -0.0663 -0.3946 -0.0339
 1535WAT     H1 4816   2.936   4.190   2.164 -0.9096  2.3292 -0.0167
 1535WAT     H2 4817   2.803   4.135   2.212 -0.2309  0.2732 -0.3668
 1536WAT      O 4818   2.681   1.266   0.904 -0.0427  0.0855  0.4018
 1536WAT     H1 4819   2.674   1.197   0.970  0.0915  0.0835  0.4127
 1536WAT     H2 4820   2.601   1.256   0.851  0.3575 -0.5885 -0.0922
 1537WAT      O 4821   1.781   4.215   0.040 -0.2361 -0.3837  0.8257
 1537WAT     H1 4822   1.742   4.290  -0.005  0.4655  0.1550  1.1021
 1537WAT     H2 4823   1.769   4.142  -0.020  0.5627  0.2991 -0.1860
 1538WAT      O 4824   2.186   4.236   4.481 -0.5478 -0.5207 -0.2364
 1538WAT     H1 4825   2.134   4.261   4.405 -1.5372  0.6056  0.7659
 1538WAT     H2 4826   2.277   4.239   4.451 -0.8211  1.3856 -0.9722
 1539WAT      O 4827   2.358   2.570   2.702  0.1865 -0.5412  0.6064
 1539WAT     H1 4828   2.285   2.517   2.670 -0.5187  0.4266  0.5771
 1539WAT     H2 4829   2.366   2.641   2.639  0.1266  0.2365  1.4508
 1540WAT      O 4830   1.954   2.808   3.010 -0.3530  0.1953  0.1098
 1540WAT     H1 4831   1.862   2.781   3.007 -0.7234  1.4627 -0.6764
 1540WAT     H2 4832   1.963   2.868   2.937  2.1561 -2.9899 -2.4533
 1541WAT      O 4833   2.648   2.774   0.671 -0.0290 -0.3501  0.5721
 1541WAT     H1 4834   2.563   2.764   0.713 -0.9769  1.5549 -0.7380
 1541WAT     H2 4835   2.711   2.750   0.738 -1.5679 -0.9768  1.8551
 1542WAT      O 4836   2.157   4.633   3.243  0.5297  0.7655 -0.2371
 1542WAT     H1 4837   2.205   4.699   3.193  2.7772 -0.6921 -0.1874
 1542WAT     H2 4838   2.202   4.630   3.328 -2.7983  2.7323  1.7850
 1543WAT      O 4839   2.889   4.636   4.449 -0.0414  0.4589 -0.2884
 1543WAT     H1 4840   2.800   4.608   4.431 -0.2887  1.6499 -1.0563
 1543WAT     H2 4841   2.887   4.670   4.538 -0.3658  0.5179 -0.3198
 1544WAT      O 4842   3.288   3.806   0.681 -0.0152  0.2929 -0.3158
 1544WAT     H1 4843   3.311   3.719   0.647  1.5122  1.4279 -2.3882
 1544WAT     H2 4844   3.363   3.830   0.736  0.0507  0.7309 -0.5990
 1545WAT      O 4845   3.271   3.804   2.820  0.3652 -0.2930  0.2704
 1545WAT     H1 4846   3.256   3.812   2.914  2.1973  0.6082  0.5304
 1545WAT     H2 4847   3.339   3.868   2.801 -0.1652 -0.2624 -1.7386
 1546WAT      O 4848   1.790   3.994   3.395  0.0810  0.5315  0.0624
 1546WAT     H1 4849   1.809   4.009   3.302 -2.2773 -1.3604 -0.8621
 1546WAT     H2 4850   1.874   3.970   3.433  0.7156 -1.4837 -2.2854
 1547WAT      O 4851   4.931   4.175   1.425  0.1027 -0.6247 -0.4738
 1547WAT     H1 4852   4.981   4.148   1.348 -2.1860 -1.4771 -1.7428
 1547WAT     H2 4853   4.991   4.232   1.473  1.7623 -0.4242 -2.6299
 1548WAT      O 4854   2.631   4.818   3.832 -0.8091  0.3698 -0.0763
 1548WAT     H1 4855   2.615   4.885   3.765 -0.0345  0.5889 -0.0578
 1548WAT     H2 4856   2.624   4.865   3.915  3.4232  1.4288 -0.0728
 1549WAT      O 4857   4.027   5.266   1.799 -0.0155  0.0395 -0.4974
 1549WAT     H1 4858   4.038   5.361   1.795 -1.8479  0.3037  0.0260
 1549WAT     H2 4859   4.066   5.234   1.718 -1.1573  1.4338 -1.6473
 1550WAT      O 4860   3.637   3.489   1.348 -0.0988 -0.2661  0.4316
 1550WAT     H1 4861   3.577   3.466   1.419 -0.2533  1.5067  0.9148
 1550WAT     H2 4862   3.715   3.435   1.364 -1.3728 -2.3629 -0.0262
 1551WAT      O 4863   1.070   0.340   2.613  0.1870 -0.2121  0.1747
 1551WAT     H1 4864   1.119   0.269   2.571  2.3862  1.7746 -0.8206
 1551WAT     H2 4865   1.079   0.322   2.707 -0.5319 -1.9692 -0.0491
 1552WAT      O 4866   0.194   3.701   3.934  0.5946  0.1159 -0.1176
 1552WAT     H1 4867   0.275   3.703   3.986  0.9946 -0.7217 -0.6879
 1552WAT     H2 4868   0.190   3.612   3.900  0.2776  0.6026 -1.4024
 1553WAT      O 4869   3.805   4.562   2.596 -0.4931 -0.4132 -0.1304
 1553WAT     H1 4870   3.824   4.520   2.512  4.0879  0.6441  0.1175
 1553WAT     H2 4871   3.742   4.631   2.574 -0.7082 -1.1985 -2.3195
 1554WAT      O 4872   0.502   0.280   3.062 -0.3512  0.3502 -0.1089
 1554WAT     H1 4873   0.561   0.293   2.988  0.6737  0.7475  0.7458
 1554WAT     H2 4874   0.538   0.205   3.109 -1.2655 -0.1949 -0.2716
 1555WAT      O 4875   2.298   3.632   2.199  0.3172 -0.0854 -0.2972
 1555WAT     H1 4876   2.263   3.549   2.167  2.3763 -0.7827 -0.9115
 1555WAT     H2 4877   2.235   3.698   2.169 -3.0050 -1.5379  2.7021
 1556WAT      O 4878   3.400   3.984   3.656 -0.0400  0.6528 -0.0382
 1556WAT     H1 4879   3.486   4.003   3.694 -1.1415  3.2876  1.4628
 1556WAT     H2 4880   3.349   3.948   3.729 -0.5678  0.2942 -0.5738
 1557WAT      O 4881   1.186   3.244   3.363  0.8483  0.2596 -0.2563
 1557WAT     H1 4882   1.099   3.283   3.361  0.9353  0.4346 -0.8819
 1557WAT     H2 4883   1.212   3.238   3.271 -0.4797 -4.2195 -0.6097
 1558WAT      O 4884   3.082   3.896   2.058 -0.6560  0.3084 -0.1761
 1558WAT     H1 4885   3.026   3.819   2.045  0.3537 -0.3557 -0.7636
 1558WAT     H2 4886   3.039   3.966   2.009 -1.3627  0.0165  0.0124
 1559WAT      O 4887   2.472   4.474   4.565  0.5653 -0.5736 -0.1608
 1559WAT     H1 4888   2.490   4.384   4.593 -0.1039 -0.9812 -1.0128
 1559WAT     H2 4889   2.383   4.491   4.596  1.2990  0.4278  1.5276
 1560WAT      O 4890   0.532   4.206   2.383  0.7688  0.1992  0.1737
 1560WAT     H1 4891   0.494   4.127   2.345  0.1808  1.0459 -1.0744
 1560WAT     H2 4892   0.603   4.175   2.439  0.6202 -1.1927 -0.3887
 1561WAT      O 4893   0.163   4.429   2.582  0.0862 -0.4162  0.1982
 1561WAT     H1 4894   0.222   4.417   2.507 -0.5457 -0.1114 -0.3661
 1561WAT     H2 4895   0.076   4.421   2.544 -0.2408 -0.6881  0.9917
 1562WAT      O 4896   4.745   4.024   2.116 -0.1400  0.2259 -0.7777
 1562WAT     H1 4897   4.831   4.032   2.076  1.0894 -1.9711  1.2150
 1562WAT     H2 4898   4.685   4.054   2.047  2.1062  0.9333 -2.5715
 1563WAT      O 4899   0.708   4.047   1.174  0.0073  0.3604  0.3264
 1563WAT     H1 4900   0.749   4.018   1.255 -0.6261  1.3769  1.0236
 1563WAT     H2 4901   0.759   4.124   1.149  0.6088 -0.3109 -0.6095
 1564WAT      O 4902   0.366   4.260   1.476 -0.0166  0.1013 -0.0082
 1564WAT     H1 4903   0.284   4.308   1.475 -0.7276 -1.0918 -0.2037
 1564WAT     H2 4904   0.366   4.209   1.395 -0.2368 -1.7473  1.0972
 1565WAT      O 4905   2.982   0.151   3.439  0.3046  0.1243  0.1349
 1565WAT     H1 4906   3.012   0.170   3.350  3.1265 -2.0464  0.4730
 1565WAT     H2 4907   2.888   0.137   3.431  0.3986  0.5459 -2.3835
 1566WAT      O 4908   2.536   3.886   0.561  0.3157  0.4116 -0.7652
 1566WAT     H1 4909   2.618   3.893   0.609  0.8304 -2.5408 -1.0517
 1566WAT     H2 4910   2.469   3.875   0.629  0.4724  0.4561 -0.6027
 1567WAT      O 4911   0.051   1.980   2.369 -0.2308 -0.3368  0.2383
 1567WAT     H1 4912  -0.005   2.049   2.334 -0.3843 -1.1237 -1.1283
 1567WAT     H2 4913  -0.010   1.917   2.408 -0.0366  0.8812  2.7461
 1568WAT      O 4914   3.256   1.249   2.172  0.1833 -0.3055  0.1624
 1568WAT     H1 4915   3.203   1.195   2.230 -0.5539  0.5445  0.3034
 1568WAT     H2 4916   3.324   1.190   2.140 -0.6514 -1.3369  0.2348
 1569WAT      O 4917   3.312   0.412   2.352 -0.5833  0.3389 -0.3793
 1569WAT     H1 4918   3.239   0.380   2.300  1.6406 -1.0313 -2.8865
 1569WAT     H2 4919   3.345   0.488   2.304  0.6524 -0.0938 -0.2757
 1570WAT      O 4920   2.029   2.823   2.470  0.0980 -0.0920 -0.6162
 1570WAT     H1 4921   2.092   2.817   2.398  0.8021  0.9812 -0.1206
 1570WAT     H2 4922   1.948   2.851   2.429  0.1432 -0.7358 -1.1586
 1571WAT      O 4923   0.478   3.680   4.499 -0.3390  0.3022 -0.3575
 1571WAT     H1 4924   0.534   3.622   4.551  0.1099  0.4533 -0.6671
 1571WAT     H2 4925   0.496   3.655   4.408  0.2209  1.2464 -0.5153
 1572WAT      O 4926   1.249   2.949   2.091 -0.4629 -0.1849  0.1771
 1572WAT     H1 4927   1.237   2.986   2.003 -1.0913  0.4321  0.5155
 1572WAT     H2 4928   1.171   2.895   2.105  0.9132 -2.5955 -0.7345
 1573WAT      O 4929   0.785   2.837   4.101  0.4879  0.3274  0.2021
 1573WAT     H1 4930   0.691   2.822   4.094  0.4993  1.1746 -3.0425
 1573WAT     H2 4931   0.823   2.791   4.027  2.6270  0.4263  1.1589
 1574WAT      O 4932   3.492   3.831   3.088 -0.1001 -0.4656 -0.2723
 1574WAT     H1 4933   3.399   3.814   3.077 -0.5375 -0.0404  2.2265
 1574WAT     H2 4934   3.526   3.753   3.132  0.0826  0.5646  1.4958
 1575WAT      O 4935   1.411   4.446   5.097  0.0148  0.2331  0.6755
 1575WAT     H1 4936   1.399   4.495   5.016  0.7177 -1.2545 -0.3702
 1575WAT     H2 4937   1.366   4.363   5.083 -0.8164  0.3744  2.2514
 1576WAT      O 4938   2.372   4.747   3.875  0.3775  0.1443  0.0175
 1576WAT     H1 4939   2.336   4.666   3.840  1.3107 -1.0015  1.5752
 1576WAT     H2 4940   2.462   4.749   3.842  0.9147 -0.3874  1.3910
 1577WAT      O 4941   4.892   4.112   3.477 -0.1188 -0.3484  0.1630
 1577WAT     H1 4942   4.802   4.080   3.484 -0.1804 -0.2532 -0.1730
 1577WAT     H2 4943   4.887   4.183   3.412  0.1471 -0.1555  0.3523
 1578WAT      O 4944   1.114   3.407   4.023  0.2520  0.4313 -0.0303
 1578WAT     H1 4945   1.109   3.414   4.118 -1.6254  0.9022 -0.1237
 1578WAT     H2 4946   1.023   3.408   3.994  0.6104 -2.6717 -1.6680
 1579WAT      O 4947   2.262   4.265   4.208 -0.0478  0.3018  0.4767
 1579WAT     H1 4948   2.347   4.223   4.221  0.1974  0.2705 -1.0204
 1579WAT     H2 4949   2.211   4.200   4.160 -0.3447  0.9558 -0.1062
 1580WAT      O 4950   0.535   2.875   3.463 -0.1950  0.0017 -0.3019
 1580WAT     H1 4951   0.590   2.836   3.531  1.5589  3.0379  0.1837
 1580WAT     H2 4952   0.554   2.825   3.384  0.3601 -1.3782  0.6710
 1581WAT      O 4953   0.799   3.250   3.766  0.2695  0.1231  0.1468
 1581WAT     H1 4954   0.718   3.206   3.741  1.2052 -1.1052 -0.8971
 1581WAT     H2 4955   0.813   3.223   3.857 -1.0809  1.3205  0.7372
 1582WAT      O 4956   3.120   5.271   3.371 -0.3098 -0.0754  0.0032
 1582WAT     H1 4957   3.216   5.271   3.377 -0.0954  0.3261 -2.4783
 1582WAT     H2 4958   3.091   5.268   3.462  2.0646  1.5609  0.9327
 1583WAT      O 4959   1.201   4.609   4.347 -0.3286  0.1198  0.4231
 1583WAT     H1 4960   1.248   4.660   4.412  0.7504 -1.2611  0.7538
 1583WAT     H2 4961   1.172   4.530   4.393 -2.1374  0.4594 -0.0265
 1584WAT      O 4962   4.365   3.409   5.009 -0.1170 -0.0020  0.0741
 1584WAT     H1 4963   4.399   3.479   5.065 -1.3544 -0.2130  1.1303
 1584WAT     H2 4964   4.376   3.329   5.062 -0.8257 -0.2792 -0.1908
 1585WAT      O 4965   2.612   4.584   1.696  0.0059 -0.3230  0.5708
 1585WAT     H1 4966   2.630   4.490   1.697 -1.7094 -0.6809 -0.0451
 1585WAT     H2 4967   2.520   4.591   1.719  0.4097  1.3107  1.8656
 1586WAT      O 4968   3.679   0.202   3.047 -0.0972 -0.7467 -0.0903
 1586WAT     H1 4969   3.646   0.288   3.071 -1.5129 -1.3869  0.4164
 1586WAT     H2 4970   3.761   0.192   3.095  0.7712  0.8025 -1.1702
 1587WAT      O 4971   4.941   2.524   1.475 -0.2456  0.4629  0.1298
 1587WAT     H1 4972   4.960   2.574   1.396  0.7075 -1.8699 -1.2012
 1587WAT     H2 4973   5.023   2.526   1.524 -0.2741  0.3644  0.1805
 1588WAT      O 4974   2.438   4.827   1.065 -0.2348  0.2635 -0.0312
 1588WAT     H1 4975   2.529   4.799   1.059 -0.4882 -0.6576  0.2777
 1588WAT     H2 4976   2.443   4.922   1.079  0.6724  0.2176  0.0115
 1589WAT      O 4977   1.208   3.937   0.600 -0.1191  0.4403  0.3928
 1589WAT     H1 4978   1.184   3.844   0.596  2.4390 -0.5893  4.0910
 1589WAT     H2 4979   1.264   3.950   0.523  0.8977 -1.6370  0.7083
 1590WAT      O 4980   3.919   1.145   1.036  0.3743  0.2950 -0.1783
 1590WAT     H1 4981   3.988   1.211   1.030  0.3602  0.3191 -0.0896
 1590WAT     H2 4982   3.839   1.196   1.050  0.1114  0.3487 -1.7278
 1591WAT      O 4983   1.524   3.802   3.698  0.0302 -0.6403 -0.2509
 1591WAT     H1 4984   1.437   3.809   3.737  0.5584  1.0071  0.7485
 1591WAT     H2 4985   1.527   3.872   3.632  0.2132 -1.4358 -1.1076
 1592WAT      O 4986   1.854   2.078   5.447  0.4909 -0.0914  0.3983
 1592WAT     H1 4987   1.770   2.037   5.468 -0.5615  1.8337  0.2212
 1592WAT     H2 4988   1.906   2.068   5.527 -0.3156 -0.3347  0.9111
 1593WAT      O 4989   2.334   3.119   4.727 -0.2209 -0.0511  0.4222
 1593WAT     H1 4990   2.268   3.085   4.666  0.4619 -0.5637 -0.0485
 1593WAT     H2 4991   2.358   3.044   4.781  1.8238 -0.5971 -1.0968
 1594WAT      O 4992   2.574   3.916   1.557  0.0716  0.0694  0.0584
 1594WAT     H1 4993   2.638   3.987   1.564  0.4553 -0.1600 -0.9203
 1594WAT     H2 4994   2.501   3.955   1.508  0.2403 -0.1789 -0.3942
 1595WAT      O 4995   1.098   4.800   1.792  0.4512  0.7333  0.0133
 1595WAT     H1 4996   1.144   4.820   1.873 -1.6001  0.1643  1.4076
 1595WAT     H2 4997   1.015   4.760   1.820 -0.3297  0.4858 -2.3606
 1596WAT      O 4998   3.535   4.341   2.455 -0.3130  0.1946 -0.2093
 1596WAT     H1 4999   3.515   4.434   2.444 -1.2953  0.0842  0.4811
 1596WAT     H2 5000   3.509   4.321   2.545 -0.3578 -0.8089 -0.4280
 1597WAT      O 5001   0.685   1.126   2.260 -0.3316  0.4280 -0.3942
 1597WAT     H1 5002   0.769   1.118   2.306 -0.6317 -0.5293  0.0140
 1597WAT     H2 5003   0.687   1.214   2.222  0.4682  0.7620  0.3743
 1598WAT      O 5004   1.378   0.571   1.182  0.3582  0.3469 -0.2102
 1598WAT     H1 5005   1.325   0.492   1.176  2.5480 -1.3183  0.8390
 1598WAT     H2 5006   1.347   0.615   1.261  0.1713 -0.3310  0.1055
 1599WAT      O 5007   1.197   1.309   0.267  0.2123  0.4106  0.2187
 1599WAT     H1 5008   1.272   1.355   0.306 -0.2123  1.3647 -0.0654
 1599WAT     H2 5009   1.182   1.234   0.324  0.8127  0.7245  0.7944
 1600WAT      O 5010   1.151   2.151   0.381 -0.0457 -0.0108 -0.1756
 1600WAT     H1 5011   1.133   2.234   0.426 -0.4588  0.9638 -2.0034
 1600WAT     H2 5012   1.233   2.168   0.334  0.2410 -0.9015 -0.0064
 1601WAT      O 5013   0.481   1.716   2.900  0.1365  0.3637 -0.7106
 1601WAT     H1 5014   0.386   1.715   2.884 -0.2099  0.5128  1.1010
 1601WAT     H2 5015   0.502   1.808   2.915 -0.1186  0.0525  2.1823
 1602WAT      O 5016   3.408   0.926   1.850 -0.0157 -0.3011 -0.2775
 1602WAT     H1 5017   3.455   0.846   1.871  2.8973  0.6690 -2.4772
 1602WAT     H2 5018   3.335   0.897   1.795  0.4647 -1.4960 -0.3109
 1603WAT      O 5019   0.629   2.018   4.388  0.0558  0.0984  0.2042
 1603WAT     H1 5020   0.638   1.945   4.449 -0.3467 -0.8981 -0.9002
 1603WAT     H2 5021   0.719   2.050   4.376  0.2037 -0.0489  0.8798
 1604WAT      O 5022   0.806   2.795   4.769  0.3458 -0.4878 -0.4603
 1604WAT     H1 5023   0.856   2.791   4.687 -0.5313  0.0164 -1.0475
 1604WAT     H2 5024   0.725   2.841   4.744 -0.5974 -1.6640  0.3606
 1605WAT      O 5025   1.497   4.773   1.963 -0.6966  0.0537 -0.6338
 1605WAT     H1 5026   1.555   4.744   1.893 -0.8370  1.1334 -1.2175
 1605WAT     H2 5027   1.480   4.694   2.015  3.3103  0.0897  1.0919
 1606WAT      O 5028   2.719   4.190   5.432  0.8240 -0.5234  0.2439
 1606WAT     H1 5029   2.684   4.278   5.418  0.2992 -0.2932  2.5598
 1606WAT     H2 5030   2.701   4.144   5.350 -0.5473  0.9956 -0.3757
 1607WAT      O 5031   1.249   3.654   2.434  0.2414  0.3257  0.0330
 1607WAT     H1 5032   1.172   3.644   2.377  0.2984  0.4536 -0.0650
 1607WAT     H2 5033   1.214   3.639   2.522  0.0398  0.7049  0.0181
 1608WAT      O 5034   2.649   0.913   4.241  0.6186  0.4240 -0.3652
 1608WAT     H1 5035   2.739   0.935   4.263 -0.0317  2.3887  0.5473
 1608WAT     H2 5036   2.602   0.996   4.244 -1.0765 -0.4099 -1.6544
 1609WAT      O 5037   2.872   1.211   0.542  0.2231 -0.1812 -0.2940
 1609WAT     H1 5038   2.810   1.156   0.590 -0.2905 -0.1121 -0.8591
 1609WAT     H2 5039   2.850   1.196   0.450  0.7433  0.2036 -0.4821
 1610WAT      O 5040   1.760   2.663   4.102 -0.5550  0.0722  0.1591
 1610WAT     H1 5041   1.780   2.715   4.024  0.9002 -1.4663 -0.5575
 1610WAT     H2 5042   1.795   2.576   4.082  0.3741 -0.2219  2.7680
 1611WAT      O 5043   1.979   2.262   1.510  0.4062  0.6485  0.1298
 1611WAT     H1 5044   1.962   2.216   1.592  0.9801  1.4831  0.7349
 1611WAT     H2 5045   1.893   2.280   1.473  0.1534 -2.0368 -0.8074
 1612WAT      O 5046   3.341   2.361   1.869  0.0276  0.1541 -0.5333
 1612WAT     H1 5047   3.279   2.290   1.855 -2.4667  2.1026 -0.0389
 1612WAT     H2 5048   3.330   2.385   1.961  2.0883  0.1148 -0.2262
 1613WAT      O 5049   0.249   0.102   3.248 -0.1467 -0.0584 -0.0080
 1613WAT     H1 5050   0.226   0.018   3.207 -2.1305  0.6588 -0.4808
 1613WAT     H2 5051   0.199   0.167   3.199  2.3001  1.5920 -0.4550
 1614WAT      O 5052   2.895   2.830   1.320 -0.1810  0.1088 -0.5947
 1614WAT     H1 5053   2.911   2.812   1.227 -1.3577  0.8753 -0.9624
 1614WAT     H2 5054   2.894   2.925   1.326 -0.1453  0.0639  0.2027
 1615WAT      O 5055   4.849   3.275   2.367  0.0831  0.2760  0.0355
 1615WAT     H1 5056   4.781   3.229   2.318  0.7870 -1.1756  0.3900
 1615WAT     H2 5057   4.836   3.367   2.344 -1.1722 -0.1078 -0.9099
 1616WAT      O 5058   2.315   1.093   2.953 -0.4959  0.3022 -0.0474
 1616WAT     H1 5059   2.396   1.140   2.931 -0.7217  0.5238 -0.4175
 1616WAT     H2 5060   2.255   1.115   2.881 -1.0661  0.5946  0.5140
 1617WAT      O 5061   2.648   4.908   2.947 -0.2466 -0.6351  0.2677
 1617WAT     H1 5062   2.654   4.960   3.027  0.2152  0.3101 -0.3664
 1617WAT     H2 5063   2.702   4.831   2.965 -0.1779 -0.4518  0.8766
 1618WAT      O 5064   0.988   2.140   5.510 -0.1207  0.0886 -0.8548
 1618WAT     H1 5065   0.935   2.075   5.557 -0.9054  0.2421 -1.5060
 1618WAT     H2 5066   0.973   2.121   5.418 -0.6328  1.3956 -1.0606
 1619WAT      O 5067   4.370   5.430   1.649  0.3827  0.1617 -0.0162
 1619WAT     H1 5068   4.415   5.347   1.669 -0.2727  0.1243  1.4270
 1619WAT     H2 5069   4.438   5.485   1.611  0.9062 -0.9300 -0.7341
 1620WAT      O 5070   4.570   4.659   1.324 -0.2079 -0.0087  0.0760
 1620WAT     H1 5071   4.506   4.646   1.394 -0.2715 -1.5862 -0.2278
 1620WAT     H2 5072   4.539   4.603   1.253  0.6145  0.4767 -0.6875
 1621WAT      O 5073   1.499   3.644   4.549  0.5202 -0.4252  0.2628
 1621WAT     H1 5074   1.536   3.573   4.602 -0.5334 -0.4550  0.9745
 1621WAT     H2 5075   1.533   3.628   4.461  0.7184 -1.5051  0.5235
 1622WAT      O 5076   1.340   3.711   1.390 -0.0293  0.4721  0.0305
 1622WAT     H1 5077   1.421   3.712   1.440  0.7827 -0.3935 -1.2083
 1622WAT     H2 5078   1.316   3.803   1.381  0.4790  0.7015  0.9194
 1623WAT      O 5079   2.716   2.849   5.427  0.1922 -0.1544  0.5040
 1623WAT     H1 5080   2.800   2.895   5.437  1.0581 -1.9520  2.1776
 1623WAT     H2 5081   2.711   2.792   5.504 -1.4251 -1.9158 -0.8248
 1624WAT      O 5082   1.767   2.252   3.118 -0.7846 -0.0590  0.6843
 1624WAT     H1 5083   1.764   2.216   3.030 -1.2146  0.6472  0.4020
 1624WAT     H2 5084   1.763   2.176   3.176  1.0515 -0.6437  0.1086
 1625WAT      O 5085   2.278   1.413   0.917  0.2071 -0.1630 -0.3695
 1625WAT     H1 5086   2.292   1.319   0.903 -3.0214 -0.5034 -2.5990
 1625WAT     H2 5087   2.301   1.453   0.834  1.1562  1.0363  0.4357
 1626WAT      O 5088   2.333   3.642   3.941  0.3887  0.2081 -0.4709
 1626WAT     H1 5089   2.419   3.678   3.963  0.5829 -0.6351  0.1951
 1626WAT     H2 5090   2.351   3.574   3.875  0.1763  0.3365 -0.6662
 1627WAT      O 5091   0.257   4.656   1.385  0.4913  0.4742  0.4066
 1627WAT     H1 5092   0.290   4.683   1.470  2.1258  0.7199 -0.2781
 1627WAT     H2 5093   0.312   4.702   1.321 -1.3610  1.1287 -0.8197
 1628WAT      O 5094   3.130   1.793   2.530 -0.0258  0.7740 -0.3587
 1628WAT     H1 5095   3.038   1.817   2.516 -0.1377 -0.4640 -1.9518
 1628WAT     H2 5096   3.154   1.741   2.453  2.1067  1.2975 -0.1117
 1629WAT      O 5097   1.323   0.657   4.117  0.5581  0.4458 -0.2540
 1629WAT     H1 5098   1.263   0.724   4.083  0.5924  0.1601 -0.8954
 1629WAT     H2 5099   1.266   0.593   4.160  0.4539  0.4828 -0.3358
 1630WAT      O 5100   3.898   3.425   2.490  0.1767 -0.5803 -0.3703
 1630WAT     H1 5101   3.941   3.365   2.428  0.7507 -1.0846  0.4956
 1630WAT     H2 5102   3.820   3.378   2.518 -1.1649  0.4486 -2.1538
 1631WAT      O 5103   3.048   1.571   0.109 -0.2262  0.1559 -0.8775
 1631WAT     H1 5104   2.981   1.554   0.175 -0.1194  0.8429 -0.5838
 1631WAT     H2 5105   3.105   1.494   0.113  0.0536  0.3944  0.1731
 1632WAT      O 5106   4.087   3.134   1.774  0.3036  0.0154 -0.3694
 1632WAT     H1 5107   4.021   3.066   1.781 -0.2964  0.6561  0.5348
 1632WAT     H2 5108   4.045   3.203   1.722  0.0553  0.6130  0.5808
 1633WAT      O 5109   0.275   5.543   3.556  0.0471  0.2938 -0.1318
 1633WAT     H1 5110   0.211   5.608   3.584  1.5135  1.5492  0.4214
 1633WAT     H2 5111   0.345   5.594   3.515  1.6026 -0.8437  1.0049
 1634WAT      O 5112   4.191   4.817   2.796 -0.2434 -0.4836 -0.0673
 1634WAT     H1 5113   4.151   4.902   2.817 -2.2325 -1.0718 -1.2047
 1634WAT     H2 5114   4.130   4.752   2.831  1.1408 -1.4900  0.5986
 1635WAT      O 5115   2.893   0.869   1.100  0.3917 -0.7726  0.1183
 1635WAT     H1 5116   2.980   0.907   1.099  0.3013 -0.5526  0.6470
 1635WAT     H2 5117   2.835   0.942   1.076  0.0659 -0.1701  2.5479
 1636WAT      O 5118   4.595   0.184   3.423 -0.3127  0.2707 -0.2035
 1636WAT     H1 5119   4.500   0.192   3.417 -0.0578  3.1858 -1.6854
 1636WAT     H2 5120   4.612   0.092   3.403 -2.7155  0.0300 -1.4621
 1637WAT      O 5121   4.491   3.855   0.801 -0.2893 -0.2815 -0.3024
 1637WAT     H1 5122   4.446   3.871   0.884  0.1688 -1.5224  0.2039
 1637WAT     H2 5123   4.579   3.827   0.826  0.0671 -0.0452 -1.2317
 1638WAT      O 5124   2.071   3.871   5.085  0.5981  0.3238 -0.4763
 1638WAT     H1 5125   2.058   3.964   5.103 -1.5785 -0.1186  0.5581
 1638WAT     H2 5126   2.062   3.828   5.170  1.3187 -0.8662 -0.9687
 1639WAT      O 5127   1.350   4.833   1.417 -0.8449 -0.1728 -0.3209
 1639WAT     H1 5128   1.325   4.781   1.493 -1.2003  0.7382  0.2114
 1639WAT     H2 5129   1.267   4.852   1.373 -0.8137  0.6161 -0.0519
 1640WAT      O 5130   1.446   3.997   0.748  0.1048  0.0828  0.0519
 1640WAT     H1 5131   1.474   4.070   0.694  1.0763  0.2240  0.7149
 1640WAT     H2 5132   1.355   3.981   0.722  0.1014  1.0682 -0.5899
 1641WAT      O 5133   3.355   0.068   1.551 -0.0388 -0.7555 -0.1311
 1641WAT     H1 5134   3.355   0.154   1.510 -1.0773  0.0072  1.3984
 1641WAT     H2 5135   3.263   0.041   1.550  0.0877 -1.2497  0.5913
 1642WAT      O 5136   0.078   4.065   2.266 -0.0807 -0.1746  0.1599
 1642WAT     H1 5137   0.086   4.028   2.178 -2.2611  1.4994 -0.8323
 1642WAT     H2 5138  -0.003   4.027   2.300 -2.7397  3.7481 -1.1181
 1643WAT      O 5139   3.836   5.015   3.038  0.0844  0.0260  0.2331
 1643WAT     H1 5140   3.905   4.952   3.020  1.1773  0.4836  2.4652
 1643WAT     H2 5141   3.868   5.098   3.004 -0.1909 -0.1041 -0.3545
 1644WAT      O 5142   0.504   2.651   4.784  0.2629  0.5110  0.0623
 1644WAT     H1 5143   0.417   2.689   4.775 -0.5659 -1.1927  0.5005
 1644WAT     H2 5144   0.515   2.598   4.705  0.3822 -0.2379  0.5684
 1645WAT      O 5145   1.020   4.653   2.973  0.4638 -0.9179 -0.0900
 1645WAT     H1 5146   0.956   4.699   2.919 -0.2933 -2.9430 -0.9867
 1645WAT     H2 5147   1.069   4.599   2.911  2.1626 -0.4557  0.7718
 1646WAT      O 5148   3.245   2.715   4.512  0.1172 -0.2421  0.3588
 1646WAT     H1 5149   3.232   2.620   4.523 -0.1048 -0.2221  0.2798
 1646WAT     H2 5150   3.295   2.741   4.589  0.6554 -0.5170  0.1133
 1647WAT      O 5151   3.921   3.018   0.615 -0.4057 -0.2508  0.2319
 1647WAT     H1 5152   3.997   2.965   0.638 -0.2530 -0.2433 -0.2450
 1647WAT     H2 5153   3.932   3.099   0.664  0.2973  0.0628 -0.4219
 1648WAT      O 5154   0.434   3.288   5.060 -0.2858  0.0717  0.0029
 1648WAT     H1 5155   0.507   3.290   4.998 -0.0615 -1.2137  0.1933
 1648WAT     H2 5156   0.357   3.269   5.006 -0.5291  1.6007 -0.2218
 1649WAT      O 5157   2.002   2.418   0.021 -0.0961  0.3078 -0.0395
 1649WAT     H1 5158   2.065   2.359  -0.021 -0.4894  0.2520 -0.5708
 1649WAT     H2 5159   1.976   2.372   0.101  0.1703  0.1063 -0.0677
 1650WAT      O 5160   1.919   4.269   4.674  0.0971  0.2829 -0.0060
 1650WAT     H1 5161   1.936   4.176   4.689  2.1992  0.7435  0.6949
 1650WAT     H2 5162   1.918   4.308   4.761  0.4143  1.1063 -0.3664
 1651WAT      O 5163   0.876   2.868   1.012 -0.0819  0.4877  0.4707
 1651WAT     H1 5164   0.915   2.916   0.940 -0.8191  0.2077 -0.1335
 1651WAT     H2 5165   0.782   2.868   0.993 -0.4108  1.2477  1.9353
 1652WAT      O 5166   2.766   4.116   1.540  0.2164  0.0335 -0.2822
 1652WAT     H1 5167   2.849   4.125   1.587  0.3770  0.0988 -0.5827
 1652WAT     H2 5168   2.789   4.124   1.448  0.2581 -2.3802 -0.5584
 1653WAT      O 5169   2.287   4.661   1.225 -0.2213 -0.1504  0.2201
 1653WAT     H1 5170   2.341   4.676   1.303 -0.5320 -0.8341  0.5777
 1653WAT     H2 5171   2.323   4.720   1.159  0.7182 -0.3167  0.5679
 1654WAT      O 5172   2.194   3.121   0.584 -0.6629 -0.3904  0.1686
 1654WAT     H1 5173   2.182   3.043   0.638  1.7026 -0.5626  0.5339
 1654WAT     H2 5174   2.204   3.192   0.648 -4.0835  0.5716 -0.1404
 1655WAT      O 5175   2.733   2.510   2.274 -0.3546  0.5801  0.1274
 1655WAT     H1 5176   2.803   2.454   2.241 -0.6329  0.3220 -0.0270
 1655WAT     H2 5177   2.660   2.450   2.290 -0.3417  0.7567  0.8663
 1656WAT      O 5178   1.277   2.475   5.325  0.0328 -0.1244  0.3797
 1656WAT     H1 5179   1.300   2.456   5.416 -1.0284  1.9733  1.1457
 1656WAT     H2 5180   1.222   2.401   5.298 -1.8265  0.4414  2.3474
 1657WAT      O 5181   2.073   4.802   1.968 -0.3903 -0.3193 -0.7225
 1657WAT     H1 5182   2.160   4.816   2.005 -0.1716 -0.2712 -1.2421
 1657WAT     H2 5183   2.016   4.859   2.020 -0.1098 -0.3292 -0.3978
 1658WAT      O 5184   1.927   5.319   3.218 -0.1995  0.1054  0.0339
 1658WAT     H1 5185   1.983   5.283   3.288 -3.1815 -0.3623  2.3957
 1658WAT     H2 5186   1.921   5.249   3.154  1.3141 -0.0819  0.0558
 1659WAT      O 5187   4.703   5.275   3.335  0.2158  0.4003  0.3882
 1659WAT     H1 5188   4.780   5.245   3.383  1.3097 -0.4405 -1.7455
 1659WAT     H2 5189   4.721   5.251   3.244 -0.7081  3.8433 -0.8556
 1660WAT      O 5190   1.018   4.004   4.895  0.3066  0.7217 -0.3997
 1660WAT     H1 5191   0.956   4.076   4.912 -0.4583 -0.0192  0.0523
 1660WAT     H2 5192   1.093   4.047   4.855 -1.0091  1.4985 -2.1622
 1661WAT      O 5193   0.934   2.866   5.333  0.0018  0.4434 -0.4306
 1661WAT     H1 5194   0.953   2.952   5.296  2.3477 -0.0912 -0.5967
 1661WAT     H2 5195   1.014   2.816   5.320 -0.0303 -0.6810  2.8437
 1662WAT      O 5196   3.841   4.526   1.088  0.0015 -0.2682 -0.1042
 1662WAT     H1 5197   3.916   4.583   1.102  0.3235 -1.1028  2.0169
 1662WAT     H2 5198   3.869   4.465   1.020  0.9934 -0.1263  0.1591
 1663WAT      O 5199   3.489   1.005   1.449 -0.0107  0.3229  0.1774
 1663WAT     H1 5200   3.455   0.925   1.488  1.8544  0.2582  1.8056
 1663WAT     H2 5201   3.572   0.980   1.410 -0.2100  1.1405 -0.8116
 1664WAT      O 5202   1.443   2.240   4.938 -0.0750  0.3561  0.0223
 1664WAT     H1 5203   1.388   2.317   4.923  1.1958  1.0981 -1.0885
 1664WAT     H2 5204   1.513   2.270   4.996 -0.2009 -0.2762  0.5173
 1665WAT      O 5205   2.323   3.645   4.819 -0.5337 -0.4027  0.0908
 1665WAT     H1 5206   2.287   3.573   4.871 -0.1817 -0.3476  0.4252
 1665WAT     H2 5207   2.389   3.604   4.763  1.6384 -0.0287  2.1905
 1666WAT      O 5208   3.070   1.703   0.388 -0.2994 -0.2352  0.1195
 1666WAT     H1 5209   3.111   1.702   0.475 -0.6376  0.2610  0.2969
 1666WAT     H2 5210   3.121   1.767   0.338 -0.4728 -0.0687  0.1504
 1667WAT      O 5211   4.424   5.352   3.264  0.5732 -0.0106 -0.3766
 1667WAT     H1 5212   4.494   5.300   3.304 -0.1107 -0.9124 -0.3227
 1667WAT     H2 5213   4.363   5.287   3.229 -0.7611  0.7348  0.4823
 1668WAT      O 5214   0.755   3.124   5.699 -0.5244 -0.7758  0.0214
 1668WAT     H1 5215   0.764   3.029   5.695 -1.5642 -0.9457  1.2873
 1668WAT     H2 5216   0.707   3.140   5.780 -2.4278  0.6765 -1.3164
 1669WAT      O 5217   2.101   4.639   1.746 -0.3360  0.3094  0.2872
 1669WAT     H1 5218   2.081   4.700   1.817 -1.3241  2.2577 -1.5420
 1669WAT     H2 5219   2.060   4.557   1.772 -0.3909  0.8671  2.0897
 1670WAT      O 5220   2.318   1.577   0.648 -0.9260 -0.0069  0.2855
 1670WAT     H1 5221   2.275   1.654   0.611 -0.4588 -0.2006 -0.6813
 1670WAT     H2 5222   2.393   1.561   0.591  1.4010  1.2519  2.7674
 1671WAT      O 5223   3.913   4.828   1.821  0.1640  0.0126  0.2167
 1671WAT     H1 5224   3.820   4.846   1.830 -0.1008 -0.5948 -1.0689
 1671WAT     H2 5225   3.956   4.907   1.856 -0.8216  0.2867  0.8310
 1672WAT      O 5226   0.967   5.007   2.108 -0.2732  0.0965 -0.7052
 1672WAT     H1 5227   0.975   5.063   2.185 -0.3593  0.9977 -1.3351
 1672WAT     H2 5228   0.875   4.978   2.109  0.3748 -2.2538  1.0845
 1673WAT      O 5229   2.092   3.057   1.547 -0.5135 -0.4268 -0.1337
 1673WAT     H1 5230   2.068   3.045   1.455  1.0170  0.7864 -0.7340
 1673WAT     H2 5231   2.061   3.145   1.568 -2.6839 -1.4223  1.1819
 1674WAT      O 5232   0.695   0.916   1.649 -0.2906  0.0888  0.0123
 1674WAT     H1 5233   0.737   1.002   1.660 -2.0713  1.0298 -0.2445
 1674WAT     H2 5234   0.612   0.924   1.695 -0.2573 -1.7166  0.4536
 1675WAT      O 5235   2.721   3.461   0.359 -0.2086  0.0872  0.1355
 1675WAT     H1 5236   2.780   3.524   0.318  0.0754 -0.5067 -0.3942
 1675WAT     H2 5237   2.671   3.512   0.422 -1.4494  1.2712 -1.7127
 1676WAT      O 5238   2.532   5.412   3.502 -0.1065 -0.1978  0.2726
 1676WAT     H1 5239   2.603   5.459   3.458  0.6286 -1.8298 -0.3918
 1676WAT     H2 5240   2.453   5.460   3.478  0.7626  1.8171  1.2394
 1677WAT      O 5241   0.942   4.253   0.550  0.0443 -0.1089 -0.0456
 1677WAT     H1 5242   1.006   4.314   0.587 -0.3244  0.2796 -0.0409
 1677WAT     H2 5243   0.958   4.170   0.595  1.1638 -0.2713 -0.7017
 1678WAT      O 5244   1.518   3.979   3.133  0.0860  0.2379  0.1948
 1678WAT     H1 5245   1.596   3.957   3.183 -0.1464 -0.8610  0.0959
 1678WAT     H2 5246   1.515   3.916   3.062 -1.1280 -0.0432  0.4594
 1679WAT      O 5247   1.223   5.167   2.833  0.5228 -0.7390 -0.0200
 1679WAT     H1 5248   1.170   5.090   2.812  2.1895 -1.8574 -0.3394
 1679WAT     H2 5249   1.269   5.143   2.913  0.3093  0.3584  0.4567
 1680WAT      O 5250   0.914   2.930   1.951 -0.1705 -0.2119 -0.0279
 1680WAT     H1 5251   0.918   2.849   1.901 -0.0900  0.6154 -1.4045
 1680WAT     H2 5252   0.989   2.981   1.921  0.2902  0.0386  1.4654
 1681WAT      O 5253   1.508   2.110   1.501 -0.1650 -0.2717  0.0038
 1681WAT     H1 5254   1.415   2.124   1.484 -0.2131  0.5493  0.8923
 1681WAT     H2 5255   1.511   2.036   1.561 -0.4110  1.0903  1.7800
 1682WAT      O 5256   4.616   3.116   3.700  0.2445 -0.4158  0.5088
 1682WAT     H1 5257   4.565   3.045   3.739  0.1852 -0.9185 -0.4442
 1682WAT     H2 5258   4.550   3.176   3.664  0.3010 -1.0074 -0.6224
 1683WAT      O 5259   3.197   1.391   2.957 -0.1591 -0.2382 -0.0200
 1683WAT     H1 5260   3.145   1.312   2.974 -0.7563 -0.2752 -1.8402
 1683WAT     H2 5261   3.213   1.428   3.044  0.3803 -2.4911  0.9414
 1684WAT      O 5262   0.838   2.136   3.604  0.4960 -0.3414  0.0690
 1684WAT     H1 5263   0.929   2.165   3.608  0.2778  0.5211 -0.7721
 1684WAT     H2 5264   0.796   2.180   3.678  0.8411 -1.0742  0.7101
 1685WAT      O 5265   0.831   1.804   2.312  0.5312  0.6890  1.0764
 1685WAT     H1 5266   0.834   1.873   2.245  0.1813  1.3259  1.7093
 1685WAT     H2 5267   0.850   1.849   2.394  0.9373 -0.0871  1.4220
 1686WAT      O 5268   3.288   3.019   1.632  0.5642  0.6394  0.0695
 1686WAT     H1 5269   3.321   2.931   1.648 -1.7459 -0.5745 -1.3912
 1686WAT     H2 5270   3.350   3.057   1.570  0.9523 -0.4149 -0.2060
 1687WAT      O 5271   3.372   4.404   4.728 -0.6067 -0.0920 -0.5211
 1687WAT     H1 5272   3.461   4.406   4.694 -0.6337  0.1243 -0.5814
 1687WAT     H2 5273   3.346   4.312   4.723  0.2252 -0.4418  1.1056
 1688WAT      O 5274   3.044   4.121   0.757 -0.1512 -0.3225 -0.9371
 1688WAT     H1 5275   2.960   4.163   0.774  0.8655  1.0582  1.0245
 1688WAT     H2 5276   3.052   4.054   0.825 -1.3991 -3.4299 -3.5579
 1689WAT      O 5277   2.445   4.612   1.463  0.2354 -0.5272 -0.3218
 1689WAT     H1 5278   2.375   4.586   1.522  0.0318  0.3980 -0.1380
 1689WAT     H2 5279   2.458   4.705   1.480  1.2771 -0.6036 -0.5948
 1690WAT      O 5280   4.754   2.808   5.115  0.1975 -0.2309  0.0323
 1690WAT     H1 5281   4.835   2.779   5.157  0.5161  1.0643  0.3413
 1690WAT     H2 5282   4.772   2.802   5.021  0.6935  0.1559  0.1023
 1691WAT      O 5283   4.017   5.666   1.370 -0.0630 -0.3118  0.1006
 1691WAT     H1 5284   3.937   5.635   1.413 -0.6081  0.1866 -0.5391
 1691WAT     H2 5285   4.027   5.609   1.294 -0.2207  0.0975 -0.2287
 1692WAT      O 5286   3.604   4.900   3.108 -0.2756 -0.8533 -0.1989
 1692WAT     H1 5287   3.695   4.928   3.094 -0.3472 -0.9600 -0.9132
 1692WAT     H2 5288   3.555   4.982   3.118 -0.3203 -0.7351 -1.2575
 1693WAT      O 5289   2.404   3.637   5.166  0.4050 -0.0533  0.7282
 1693WAT     H1 5290   2.339   3.567   5.166  0.5213 -0.1616  0.3538
 1693WAT     H2 5291   2.451   3.625   5.249  0.5585 -0.5480  0.5721
 1694WAT      O 5292   0.891   1.139   3.250 -0.3032  0.3078 -0.5735
 1694WAT     H1 5293   0.902   1.232   3.267  1.0967  0.2942 -1.2467
 1694WAT     H2 5294   0.911   1.097   3.334 -1.3002  0.6143 -0.1703
 1695WAT      O 5295   4.333   3.087   1.173  0.2054 -0.1831  0.4221
 1695WAT     H1 5296   4.336   3.161   1.112  1.7670 -0.2141  0.4385
 1695WAT     H2 5297   4.334   3.009   1.118 -0.0573 -0.2105  0.4515
 1696WAT      O 5298   2.359   1.833   4.958  0.2318  0.5203  0.0112
 1696WAT     H1 5299   2.271   1.817   4.993  0.4747 -0.1346  0.3502
 1696WAT     H2 5300   2.353   1.806   4.866  0.0122  0.7149 -0.0318
 1697WAT      O 5301   1.065   1.092   0.835 -0.2349 -0.2519 -0.2059
 1697WAT     H1 5302   0.984   1.064   0.877  1.1363 -2.3716  1.2764
 1697WAT     H2 5303   1.046   1.090   0.742 -2.0135 -0.1785  0.1224
 1698WAT      O 5304   1.968   4.304   2.087  0.1344  0.4850  0.0862
 1698WAT     H1 5305   1.951   4.279   2.178 -1.2600  0.9023 -0.0370
 1698WAT     H2 5306   1.905   4.374   2.070  0.1351  0.1583 -1.3174
 1699WAT      O 5307   4.793   5.123   3.736  0.2588 -0.2968 -0.8544
 1699WAT     H1 5308   4.807   5.034   3.770 -1.3783 -0.1951  0.1766
 1699WAT     H2 5309   4.839   5.180   3.797  0.3532 -0.3578 -0.8685
 1700WAT      O 5310   1.907   1.849   1.136  0.4493 -0.2175  0.0651
 1700WAT     H1 5311   1.864   1.910   1.197  1.9623  0.6339  0.3263
 1700WAT     H2 5312   1.848   1.774   1.133 -0.8096  0.6936  0.7840
 1701WAT      O 5313   4.932   1.915   0.204  0.0761 -0.0204 -0.3177
 1701WAT     H1 5314   5.016   1.932   0.161 -0.7928  0.9710 -1.7414
 1701WAT     H2 5315   4.893   1.845   0.151 -1.1234  1.3976 -1.4093
 1702WAT      O 5316   2.977   2.312   0.287 -0.4213  0.3291  0.0048
 1702WAT     H1 5317   2.931   2.242   0.333 -1.0978  1.7932  1.6445
 1702WAT     H2 5318   3.052   2.331   0.343 -1.3687  2.2744  0.6949
 1703WAT      O 5319   4.164   3.122   0.820 -0.0368  0.1979 -0.1619
 1703WAT     H1 5320   4.170   3.213   0.794  0.2407  0.9216  2.2275
 1703WAT     H2 5321   4.199   3.073   0.746  0.8344  2.0928 -1.0402
 1704WAT      O 5322   2.489   2.799   1.349 -0.2125  0.3079 -0.8045
 1704WAT     H1 5323   2.423   2.859   1.384 -1.7916 -0.4236 -2.3390
 1704WAT     H2 5324   2.500   2.733   1.417  0.3568  1.4334  0.2359
 1705WAT      O 5325   2.662   3.441   4.022 -0.2856 -0.1243 -0.5216
 1705WAT     H1 5326   2.738   3.396   3.986 -1.1554 -0.0078 -2.7201
 1705WAT     H2 5327   2.673   3.533   3.995 -0.4205  0.2168  0.5489
 1706WAT      O 5328   1.805   4.126   1.437  0.1391  0.3717  0.3719
 1706WAT     H1 5329   1.821   4.039   1.402 -1.3531  0.1509  0.1786
 1706WAT     H2 5330   1.772   4.111   1.526 -1.2057  0.6640 -0.0579
 1707WAT      O 5331   4.053   3.763   1.721  0.2275 -0.2995  0.0778
 1707WAT     H1 5332   4.012   3.789   1.804  1.2013 -0.7429  0.7242
 1707WAT     H2 5333   4.099   3.681   1.742  1.6847  0.3252 -0.5207
 1708WAT      O 5334   2.452   2.781   2.157  0.3743 -0.4846 -0.4306
 1708WAT     H1 5335   2.449   2.696   2.202  2.0617 -0.5747 -0.4041
 1708WAT     H2 5336   2.538   2.817   2.181 -0.2300  1.1473 -0.6147
 1709WAT      O 5337   2.769   3.890   1.971 -0.7190 -0.3088 -0.9878
 1709WAT     H1 5338   2.693   3.917   1.920 -0.6287 -0.5186 -1.2342
 1709WAT     H2 5339   2.760   3.937   2.054 -0.6958  0.2805 -1.3153
 1710WAT      O 5340   1.190   1.704   0.298 -0.0524 -0.1671  0.5810
 1710WAT     H1 5341   1.187   1.797   0.322 -1.1655 -0.7160  2.8881
 1710WAT     H2 5342   1.105   1.670   0.324  0.8494 -2.1230  1.1849
 1711WAT      O 5343   3.615   5.535   2.144  0.2736 -0.2737 -0.4553
 1711WAT     H1 5344   3.532   5.576   2.167  0.3757 -0.6805  0.6999
 1711WAT     H2 5345   3.591   5.450   2.108  0.1949 -0.6695  0.4968
 1712WAT      O 5346   2.549   2.879   1.670 -0.6258  0.5597  0.1450
 1712WAT     H1 5347   2.486   2.899   1.602  0.6855  2.3634 -0.6203
 1712WAT     H2 5348   2.610   2.817   1.630 -0.7533  0.3758  0.2302
 1713WAT      O 5349   3.032   3.292   0.918 -0.3649 -0.0757 -0.1160
 1713WAT     H1 5350   3.066   3.323   1.001  1.1797 -0.7113 -0.4865
 1713WAT     H2 5351   2.996   3.370   0.876  1.4297  0.8131 -0.0762
 1714WAT      O 5352   2.493   3.606   5.815  0.2148  0.2291  0.0296
 1714WAT     H1 5353   2.428   3.636   5.880 -0.8170 -0.4218 -0.6726
 1714WAT     H2 5354   2.455   3.527   5.778  1.3534 -0.0779 -0.5327
 1715WAT      O 5355   2.529   1.738   5.433 -0.1104 -0.3311  0.1052
 1715WAT     H1 5356   2.548   1.824   5.396  0.7026  0.7339  2.7550
 1715WAT     H2 5357   2.594   1.680   5.394  1.2598  0.9081  0.4734
 1716WAT      O 5358   4.482   2.163   5.725 -0.1498 -0.6207  0.3369
 1716WAT     H1 5359   4.572   2.188   5.746  0.3381 -2.4315  0.6145
 1716WAT     H2 5360   4.471   2.188   5.633  0.4036  0.2080  0.4855
 1717WAT      O 5361   2.961   1.351   1.569  0.2781  0.4071  0.1442
 1717WAT     H1 5362   2.884   1.350   1.626  0.9404 -2.0761  1.0924
 1717WAT     H2 5363   2.925   1.345   1.480 -0.7081  3.2196  0.2324
 1718WAT      O 5364   4.321   1.294   3.491 -0.3208 -0.0949 -0.4442
 1718WAT     H1 5365   4.330   1.389   3.500  0.3301 -0.2301  0.5600
 1718WAT     H2 5366   4.389   1.269   3.428  0.6208 -0.0630  0.5190
 1719WAT      O 5367   1.453   1.397   2.462  0.2734 -0.3580  0.2783
 1719WAT     H1 5368   1.364   1.377   2.433  0.4989  0.2397 -0.8855
 1719WAT     H2 5369   1.492   1.312   2.482 -0.4887 -0.6395  0.6072
 1720WAT      O 5370   3.126   5.592   1.610  0.0576  0.6824 -0.0995
 1720WAT     H1 5371   3.041   5.610   1.569 -1.0247  1.3694  2.2992
 1720WAT     H2 5372   3.111   5.518   1.667  1.5935 -0.3843 -0.9890
 1721WAT      O 5373   3.919   3.060   5.453  0.6647  0.5081  0.0819
 1721WAT     H1 5374   3.936   2.989   5.515  3.0445  2.9951  2.6017
 1721WAT     H2 5375   3.828   3.084   5.469 -0.0184 -1.5426 -0.4322
 1722WAT      O 5376   2.167   2.985   5.348  0.1950 -0.4517  0.1702
 1722WAT     H1 5377   2.101   3.054   5.351 -0.4937 -1.0698 -0.3014
 1722WAT     H2 5378   2.233   3.017   5.287  1.6952  1.3100  2.5444
 1723WAT      O 5379   1.620   0.037   2.026 -0.1376 -0.2459 -0.7807
 1723WAT     H1 5380   1.595   0.128   2.010 -1.1196 -0.4663 -0.5789
 1723WAT     H2 5381   1.549  -0.015   1.989 -0.9072 -0.8439  1.3648
 1724WAT      O 5382   2.468   1.429   1.660 -0.6768 -0.0772  0.6151
 1724WAT     H1 5383   2.416   1.402   1.585 -0.6857  0.7549  0.3090
 1724WAT     H2 5384   2.418   1.401   1.737 -0.3770 -1.4805  0.3302
 1725WAT      O 5385   3.357   0.313   3.395  0.3686 -0.0550 -0.0730
 1725WAT     H1 5386   3.449   0.336   3.411  0.0685  2.1980 -1.2761
 1725WAT     H2 5387   3.357   0.217   3.395  2.5989 -0.1274  0.5620
 1726WAT      O 5388   3.183   3.578   5.365 -0.0583 -0.2126  0.2584
 1726WAT     H1 5389   3.089   3.559   5.360 -0.4535  1.6354  0.0288
 1726WAT     H2 5390   3.213   3.572   5.275 -0.8206  2.9436 -0.3368
 1727WAT      O 5391   2.729   4.540   2.342 -0.2529 -0.8014  0.4690
 1727WAT     H1 5392   2.682   4.497   2.271  0.2248 -2.2775  1.0208
 1727WAT     H2 5393   2.794   4.477   2.371  0.6031  0.3644  1.2006
 1728WAT      O 5394   0.153   0.429   1.613  0.0331 -0.1212 -0.0961
 1728WAT     H1 5395   0.219   0.360   1.614 -0.3684 -0.5220 -0.5783
 1728WAT     H2 5396   0.073   0.385   1.584 -0.4439  0.3587  0.4626
 1729WAT      O 5397   2.683   2.704   2.999  0.1022  0.0800  0.0858
 1729WAT     H1 5398   2.623   2.748   3.060  0.9452 -1.2786  2.0014
 1729WAT     H2 5399   2.628   2.642   2.952 -0.6973  1.6424 -1.1281
 1730WAT      O 5400   0.057   5.670   1.887  0.3595  0.1891 -0.1464
 1730WAT     H1 5401   0.028   5.583   1.915 -1.4413  0.4685 -0.9941
 1730WAT     H2 5402   0.152   5.665   1.888  0.2933 -1.7311  0.0048
 1731WAT      O 5403   1.338   2.720   4.732 -0.1949 -0.4643  0.3682
 1731WAT     H1 5404   1.276   2.746   4.664  0.2869  1.2889  0.5379
 1731WAT     H2 5405   1.297   2.747   4.814  0.1566 -0.5772  0.5859
 1732WAT      O 5406   3.873   4.005   1.401  0.4759  0.2070 -0.0814
 1732WAT     H1 5407   3.796   3.959   1.367 -0.1839  0.5688  0.8657
 1732WAT     H2 5408   3.939   3.937   1.411 -0.2624 -0.4352  0.6406
 1733WAT      O 5409   2.729   4.722   1.895  0.2637  0.0268  0.3583
 1733WAT     H1 5410   2.766   4.637   1.919  0.5460 -0.2161 -0.8835
 1733WAT     H2 5411   2.655   4.700   1.838  0.4389  0.6116 -0.1033
 1734WAT      O 5412   4.831   0.195   1.832  0.6169 -0.1276 -0.1498
 1734WAT     H1 5413   4.913   0.145   1.826  0.6331  0.0526 -2.8224
 1734WAT     H2 5414   4.848   0.262   1.898  2.2459 -0.7394  0.0984
 1735WAT      O 5415   3.908   2.387   0.361  0.2981 -0.4629 -0.0759
 1735WAT     H1 5416   3.915   2.476   0.325  0.5367  0.1746  1.4493
 1735WAT     H2 5417   3.934   2.330   0.289  0.9389  0.7581 -0.8508
 1736WAT      O 5418   1.856   2.471   1.045 -0.0997  0.0176  0.1765
 1736WAT     H1 5419   1.934   2.417   1.046 -0.8020 -1.0410 -0.1267
 1736WAT     H2 5420   1.856   2.517   1.129  0.1761 -0.9568  0.7146
 1737WAT      O 5421   2.837   2.301   1.833  0.0239  0.0597 -0.1990
 1737WAT     H1 5422   2.747   2.333   1.839  0.6280  1.5596  1.9900
 1737WAT     H2 5423   2.829   2.210   1.803 -2.1842  0.2514 -0.2956
 1738WAT      O 5424   3.518   4.381   1.912  0.4245  0.0424  0.3376
 1738WAT     H1 5425   3.539   4.456   1.857 -1.1437  1.8923  2.0945
 1738WAT     H2 5426   3.563   4.307   1.871  1.9374  1.9012 -1.5308
 1739WAT      O 5427   3.244   1.554   3.186 -0.3139  0.8086 -0.4822
 1739WAT     H1 5428   3.263   1.640   3.223  0.5872  0.5014 -0.2137
 1739WAT     H2 5429   3.245   1.495   3.261 -0.2455  0.4571 -0.7588
 1740WAT      O 5430   1.423   3.592   0.569  0.4693  0.5582  0.0383
 1740WAT     H1 5431   1.490   3.654   0.598  0.0540  1.2222 -0.3723
 1740WAT     H2 5432   1.458   3.555   0.489  1.5224 -1.1178  1.2246
 1741WAT      O 5433   2.773   2.875   0.998  0.1928 -1.0654 -0.2845
 1741WAT     H1 5434   2.723   2.940   1.047  0.6730 -0.4634 -0.5900
 1741WAT     H2 5435   2.861   2.911   0.993  0.7213 -2.2064  0.4165
 1742WAT      O 5436   1.385   1.167   4.481  0.3238 -0.0178 -0.3586
 1742WAT     H1 5437   1.399   1.188   4.574  2.7456  0.2370 -0.7189
 1742WAT     H2 5438   1.425   1.240   4.434 -0.2528 -0.4940 -1.6268
 1743WAT      O 5439   2.933   3.089   5.662  0.1453  0.1472 -0.3446
 1743WAT     H1 5440   2.974   3.004   5.672 -1.6362 -0.8039 -0.7339
 1743WAT     H2 5441   3.003   3.152   5.679  1.7535 -1.3678 -1.1182
 1744WAT      O 5442   4.452   5.428   2.425 -0.3073  0.1049 -0.1922
 1744WAT     H1 5443   4.428   5.514   2.391 -1.3459 -0.3583 -0.6788
 1744WAT     H2 5444   4.369   5.381   2.432 -0.1974  0.1813  3.1451
 1745WAT      O 5445   4.489   5.019   2.327  0.3218 -0.1442  0.2514
 1745WAT     H1 5446   4.556   5.087   2.322  0.4893 -0.4035 -3.0098
 1745WAT     H2 5447   4.530   4.942   2.288 -1.3669 -0.7475 -0.4298
 1746WAT      O 5448   3.171   1.978   2.924  0.1733 -0.2037  0.0508
 1746WAT     H1 5449   3.105   2.046   2.914  1.0914  0.7505  0.2680
 1746WAT     H2 5450   3.123   1.902   2.958 -1.0187  0.0490 -1.0181
 1747WAT      O 5451   2.277   3.183   1.216  0.4456  0.5311 -0.2812
 1747WAT     H1 5452   2.193   3.143   1.236 -0.4238  1.9052 -1.0075
 1747WAT     H2 5453   2.308   3.219   1.300  0.6206 -0.4822  0.1052
 1748WAT      O 5454   1.160   3.476   1.137  0.1822  0.3163  0.0762
 1748WAT     H1 5455   1.150   3.413   1.065  1.4924  0.8035 -0.5701
 1748WAT     H2 5456   1.250   3.463   1.168  0.0372  0.9704  0.8066
 1749WAT      O 5457   4.689   3.385   1.263  0.1470  0.4667 -0.5121
 1749WAT     H1 5458   4.641   3.406   1.183  2.8216  0.6290 -2.1959
 1749WAT     H2 5459   4.621   3.371   1.329 -2.1359  1.2727 -2.5548
 1750WAT      O 5460   2.427   4.013   3.093 -0.0141 -0.7439  0.0589
 1750WAT     H1 5461   2.429   4.084   3.158 -0.5342 -0.6161 -0.0640
 1750WAT     H2 5462   2.520   3.993   3.078  0.2164  0.9474 -1.0565
 1751WAT      O 5463   1.184   5.498   3.425 -0.1451  0.5895  0.3106
 1751WAT     H1 5464   1.179   5.558   3.500 -1.1239  2.4136 -1.1305
 1751WAT     H2 5465   1.093   5.481   3.402  0.1456 -0.0648 -0.3910
 1752WAT      O 5466   1.323   4.763   4.729 -0.2294  0.3261  0.1659
 1752WAT     H1 5467   1.329   4.857   4.743  3.3443  0.2085  0.1352
 1752WAT     H2 5468   1.349   4.751   4.637  1.9036 -0.8044  0.8604
 1753WAT      O 5469   3.750   1.807   1.881  0.0863 -0.5186 -0.3997
 1753WAT     H1 5470   3.692   1.756   1.938  0.7986 -0.0153  0.8235
 1753WAT     H2 5471   3.836   1.765   1.890  0.3639  0.0090 -0.5264
 1754WAT      O 5472   2.783   3.912   0.683  0.6543  0.2866  0.3087
 1754WAT     H1 5473   2.810   3.898   0.774  0.6428  1.6275  0.5463
 1754WAT     H2 5474   2.865   3.925   0.636  0.6035  1.8502  0.5733
 1755WAT      O 5475   0.993   3.672   1.054 -0.6658  0.7269  0.2708
 1755WAT     H1 5476   1.037   3.594   1.087 -0.6682  0.8637  0.5973
 1755WAT     H2 5477   0.918   3.638   1.005  0.1772  0.4630 -0.8764
 1756WAT      O 5478   2.441   5.272   1.568 -0.2470  0.1180 -0.5372
 1756WAT     H1 5479   2.531   5.296   1.545  0.1002 -0.2700  0.3592
 1756WAT     H2 5480   2.439   5.278   1.664  0.2689 -4.7044 -0.0047
 1757WAT      O 5481   0.286   2.730   2.096 -0.4120 -0.2296  0.2774
 1757WAT     H1 5482   0.223   2.707   2.027 -0.1993 -2.2546  0.6801
 1757WAT     H2 5483   0.367   2.685   2.071  0.5600  1.4014  0.3689
 1758WAT      O 5484   0.618   5.622   1.413  0.2206 -0.4349 -0.7439
 1758WAT     H1 5485   0.676   5.593   1.483  0.0021  0.6081 -0.1119
 1758WAT     H2 5486   0.646   5.711   1.393  0.5950 -0.8618 -2.3371
 1759WAT      O 5487   3.264   4.092   1.144  0.0862 -0.1087 -0.2202
 1759WAT     H1 5488   3.345   4.094   1.194  0.5850 -0.1587 -1.0161
 1759WAT     H2 5489   3.214   4.019   1.183  1.3326 -1.4859 -1.0870
 1760WAT      O 5490   2.655   2.511   5.782  0.0642 -0.7632  0.0574
 1760WAT     H1 5491   2.621   2.599   5.796  0.5689 -0.6339  0.4949
 1760WAT     H2 5492   2.735   2.507   5.834 -1.2263 -2.2764  2.0682
 1761WAT      O 5493   2.917   4.008   4.381 -0.3646 -0.3786  0.3391
 1761WAT     H1 5494   2.890   3.970   4.464  0.9753  2.7323  2.3876
 1761WAT     H2 5495   2.888   4.099   4.385  1.3413  0.3608 -1.7975
 1762WAT      O 5496   3.790   3.600   5.629  0.2684 -1.0975 -0.8574
 1762WAT     H1 5497   3.710   3.578   5.678  0.2384  0.1354 -0.3151
 1762WAT     H2 5498   3.861   3.562   5.680  0.0253 -2.5677 -1.5625
 1763WAT      O 5499   2.018   2.980   5.719  0.4182 -0.0870 -0.2979
 1763WAT     H1 5500   2.078   3.032   5.665 -0.4422  1.1859 -0.1008
 1763WAT     H2 5501   2.059   2.978   5.805 -0.0540  1.2550 -0.0195
 1764WAT      O 5502   0.968   2.034   4.145 -0.2667  0.9100 -0.0817
 1764WAT     H1 5503   0.928   2.070   4.066 -0.2513  1.5341  0.1892
 1764WAT     H2 5504   0.929   1.947   4.153  1.2029  0.0337 -1.8552
 1765WAT      O 5505   4.477   2.050   3.141 -0.5012 -0.2588  0.1785
 1765WAT     H1 5506   4.406   2.097   3.097 -1.6283 -2.6190 -0.6921
 1765WAT     H2 5507   4.448   2.043   3.232 -1.3612 -1.0643 -0.1371
 1766WAT      O 5508   1.855   3.716   3.294 -0.3459 -0.2358 -0.2651
 1766WAT     H1 5509   1.941   3.740   3.259  0.7300  0.2207  2.4714
 1766WAT     H2 5510   1.810   3.800   3.305 -0.8941 -0.4210 -1.0317
 1767WAT      O 5511   4.267   3.051   5.439  0.3406 -0.4270 -0.0341
 1767WAT     H1 5512   4.347   3.057   5.492 -0.8865 -1.2252  2.0013
 1767WAT     H2 5513   4.227   3.138   5.446  0.7145 -0.2022 -0.5852
 1768WAT      O 5514   0.838   2.030   5.720 -0.5154  0.2885 -0.0927
 1768WAT     H1 5515   0.850   1.940   5.750  0.1389 -0.1324 -1.5364
 1768WAT     H2 5516   0.882   2.083   5.786 -1.0276 -0.4219  0.8506
 1769WAT      O 5517   3.891   2.246   5.211  0.4177  0.1371  0.0739
 1769WAT     H1 5518   3.960   2.224   5.148 -0.0453 -0.6186 -0.1776
 1769WAT     H2 5519   3.856   2.162   5.239  1.0664  0.4342  1.8628
 1770WAT      O 5520   3.744   1.960   5.018  0.2122  0.4648 -0.4554
 1770WAT     H1 5521   3.770   1.868   5.005 -1.4015  0.0108 -0.6435
 1770WAT     H2 5522   3.672   1.955   5.081 -2.5439  1.1821 -3.3395
 1771WAT      O 5523   2.440   1.893   0.101 -0.1544  0.2041 -0.2485
 1771WAT     H1 5524   2.470   1.917   0.189 -1.5477 -1.7990  0.8290
 1771WAT     H2 5525   2.386   1.967   0.073  0.1443  0.7784  0.6499
 1772WAT      O 5526   0.413   3.317   4.690  0.4765 -0.1152 -0.4191
 1772WAT     H1 5527   0.473   3.247   4.716 -0.7269 -1.2626 -0.6063
 1772WAT     H2 5528   0.400   3.303   4.596  0.2398  0.3711 -0.4600
 1773WAT      O 5529   0.034   3.857   5.539  0.2544 -0.2143  0.0704
 1773WAT     H1 5530  -0.046   3.811   5.566 -0.4925  1.4420  0.8694
 1773WAT     H2 5531   0.065   3.809   5.462 -1.2870 -1.1507 -0.0102
 1774WAT      O 5532   4.320   0.292   4.209  0.5099 -0.3364 -0.0406
 1774WAT     H1 5533   4.355   0.261   4.125 -0.5441 -0.4836 -0.4483
 1774WAT     H2 5534   4.318   0.213   4.264 -0.9753 -0.7704 -0.6611
 1775WAT      O 5535   3.300   3.964   0.201  0.1747  0.2949  0.0537
 1775WAT     H1 5536   3.340   3.968   0.288  1.6694 -1.5054 -0.5001
 1775WAT     H2 5537   3.354   4.021   0.147  2.0496 -2.0087 -0.6557
 1776WAT      O 5538   3.648   3.261   5.426 -0.1382 -0.6662  0.2733
 1776WAT     H1 5539   3.614   3.176   5.453 -0.2654  0.1432  2.9555
 1776WAT     H2 5540   3.586   3.324   5.464 -0.0794  0.6503 -1.6959
 1777WAT      O 5541   2.347   3.935   5.148 -0.2835 -0.0262  0.3734
 1777WAT     H1 5542   2.393   3.852   5.138  0.6344  0.1613  2.4634
 1777WAT     H2 5543   2.263   3.911   5.186 -1.4787 -0.2458 -2.2160
 1778WAT      O 5544   4.654   1.705   5.159  0.7829 -0.6229  0.0607
 1778WAT     H1 5545   4.582   1.736   5.213  0.5426 -2.5886  0.9496
 1778WAT     H2 5546   4.728   1.697   5.220  1.9499  1.6821 -0.8888
 1779WAT      O 5547   4.840   4.646   4.174 -0.3475  0.2993 -0.2831
 1779WAT     H1 5548   4.782   4.707   4.130  1.0328  0.7718 -1.5161
 1779WAT     H2 5549   4.783   4.597   4.233 -1.8103  1.4022 -0.7289
 1780WAT      O 5550   3.416   4.496   3.098  0.6201  0.5430  0.1895
 1780WAT     H1 5551   3.504   4.529   3.077  0.4164  0.7503 -0.3396
 1780WAT     H2 5552   3.426   4.456   3.185  1.2634  0.4685  0.0855
 1781WAT      O 5553   3.776   4.419   3.902  0.0219  0.6205  0.0472
 1781WAT     H1 5554   3.741   4.399   3.988  1.3435 -1.4533  0.1531
 1781WAT     H2 5555   3.860   4.375   3.899  0.2103  1.0164 -2.1540
 1782WAT      O 5556   1.867   4.421   4.165 -0.0747  0.5311  0.4513
 1782WAT     H1 5557   1.838   4.512   4.165  1.7923  1.1817 -0.1905
 1782WAT     H2 5558   1.855   4.392   4.074  0.6620  0.6100  0.3243
 1783WAT      O 5559   3.928   2.967   4.212 -0.8743  0.9087 -0.5613
 1783WAT     H1 5560   3.834   2.979   4.230 -1.0665 -0.8343 -0.2280
 1783WAT     H2 5561   3.971   2.993   4.293 -1.0967  1.3377 -0.5770
 1784WAT      O 5562   1.951   1.746   5.334  0.9346 -0.8639  0.3324
 1784WAT     H1 5563   1.928   1.653   5.328  0.9080 -0.9804  1.9432
 1784WAT     H2 5564   1.995   1.755   5.418  0.6305  0.6492  0.3539
 1785WAT      O 5565   2.478   3.462   0.699 -0.2129 -0.0281  0.1659
 1785WAT     H1 5566   2.533   3.384   0.700 -0.7495 -0.4110  0.9721
 1785WAT     H2 5567   2.504   3.510   0.778  0.1637  0.6564 -0.3613
 1786WAT      O 5568   1.392   3.476   5.165  0.3540 -0.2880 -0.3146
 1786WAT     H1 5569   1.455   3.449   5.098  0.5276  1.7000 -1.0035
 1786WAT     H2 5570   1.445   3.519   5.232  0.1828 -2.2539  1.1807
 1787WAT      O 5571   0.432   1.422   4.544 -0.3524  0.2500 -0.2702
 1787WAT     H1 5572   0.502   1.412   4.609  1.1782  0.2080 -1.8620
 1787WAT     H2 5573   0.401   1.333   4.529  0.8421 -0.0397 -1.1940
 1788WAT      O 5574   4.038   1.344   2.883 -0.0834  0.0357 -0.7846
 1788WAT     H1 5575   4.105   1.378   2.823  0.4072 -0.7714 -0.7156
 1788WAT     H2 5576   3.965   1.405   2.875  0.3986  0.5470 -1.3841
 1789WAT      O 5577   1.550   1.604   0.965  0.1779  0.0487  0.0013
 1789WAT     H1 5578   1.585   1.643   0.885 -0.8104  1.7189  0.3377
 1789WAT     H2 5579   1.462   1.576   0.941  0.2859 -0.4875  0.2148
 1790WAT      O 5580   1.093   5.477   2.275 -0.1045 -0.3701 -0.1381
 1790WAT     H1 5581   1.023   5.442   2.329 -0.7420 -2.0409 -1.9100
 1790WAT     H2 5582   1.069   5.569   2.261 -1.3490 -0.6217  0.2257
 1791WAT      O 5583   0.533   2.144   5.442  0.1417 -0.1360  0.3864
 1791WAT     H1 5584   0.572   2.085   5.377  0.5097  1.0110 -0.4771
 1791WAT     H2 5585   0.527   2.092   5.522  0.9941 -1.1583 -0.1903
 1792WAT      O 5586   1.697   2.116   0.336  0.2703  0.0585  0.5845
 1792WAT     H1 5587   1.684   2.021   0.342  0.5142  0.0548  1.0936
 1792WAT     H2 5588   1.780   2.132   0.381  0.4722  0.4587  0.0820
 1793WAT      O 5589   2.934   3.197   0.659 -0.1098 -0.5324  0.3867
 1793WAT     H1 5590   2.952   3.287   0.631  0.4899 -1.2122 -1.5998
 1793WAT     H2 5591   3.001   3.178   0.725  0.3124  0.2043  0.1824
 1794WAT      O 5592   3.615   1.380   4.102 -0.5025  0.3790 -0.0560
 1794WAT     H1 5593   3.671   1.302   4.102  0.0794  0.7790 -0.8814
 1794WAT     H2 5594   3.653   1.437   4.169 -0.7681  0.0766  0.3602
 1795WAT      O 5595   3.606   3.375   1.045  0.4439  0.1004 -0.5185
 1795WAT     H1 5596   3.577   3.465   1.062  2.0486  0.6344 -0.5099
 1795WAT     H2 5597   3.694   3.384   1.008  0.5369 -1.4621 -0.7504
 1796WAT      O 5598   0.888   3.734   4.815 -0.1749  0.8232 -0.1434
 1796WAT     H1 5599   0.805   3.758   4.774 -0.3212  0.7827  0.1257
 1796WAT     H2 5600   0.943   3.812   4.806 -0.0480  0.6657 -0.8108
 1797WAT      O 5601   4.417   1.560   3.439 -0.2422  0.0864 -0.3646
 1797WAT     H1 5602   4.511   1.550   3.447 -0.1066  2.1369  2.0193
 1797WAT     H2 5603   4.404   1.603   3.354  1.3125  2.2591  0.3922
 1798WAT      O 5604   3.158   2.773   4.221  0.0300 -0.8086  0.1946
 1798WAT     H1 5605   3.217   2.749   4.294  2.2512  0.3535 -1.1132
 1798WAT     H2 5606   3.201   2.736   4.144 -0.2273  1.2379 -0.9696
 1799WAT      O 5607   1.817   0.531   3.758 -0.6164  0.0125 -0.1360
 1799WAT     H1 5608   1.868   0.608   3.731  1.6269 -1.7072 -1.1033
 1799WAT     H2 5609   1.729   0.565   3.774  0.8837  3.3208  2.3588
 1800WAT      O 5610   4.520   3.018   4.890 -0.4976 -0.3688 -0.0872
 1800WAT     H1 5611   4.460   3.086   4.859 -0.1033 -0.7662 -1.8422
 1800WAT     H2 5612   4.583   3.064   4.946 -2.0675  0.1445  1.3446
 1801WAT      O 5613   4.745   2.161   1.108 -0.1372  0.9529  0.5081
 1801WAT     H1 5614   4.746   2.245   1.062 -0.3989  1.5145  1.5148
 1801WAT     H2 5615   4.770   2.181   1.198 -0.4600 -0.0044  0.8346
 1802WAT      O 5616   2.199   5.046   2.861  0.0209  0.4029 -0.2713
 1802WAT     H1 5617   2.227   4.961   2.827  1.1773  0.8881 -0.5838
 1802WAT     H2 5618   2.193   5.033   2.956  0.2024 -0.0281 -0.3171
 1803WAT      O 5619   4.403   2.879   1.004 -0.0171 -0.1768 -0.0423
 1803WAT     H1 5620   4.320   2.836   0.983  0.5435 -2.9621  2.6829
 1803WAT     H2 5621   4.470   2.815   0.981  0.9758 -0.2381  2.5939
 1804WAT      O 5622   1.947   3.634   4.009  0.2100  0.1214 -0.0638
 1804WAT     H1 5623   1.878   3.655   3.945 -0.2465  0.1278  0.4277
 1804WAT     H2 5624   1.901   3.588   4.079  0.7738 -0.2084  0.0959
 1805WAT      O 5625   4.650   4.300   3.665 -0.0384 -0.0573 -0.3395
 1805WAT     H1 5626   4.644   4.206   3.649 -1.6981  0.2907 -2.1503
 1805WAT     H2 5627   4.650   4.309   3.760 -1.6783 -1.8163 -0.1127
 1806WAT      O 5628   0.254   2.795   1.500 -0.0555 -0.0789  0.4045
 1806WAT     H1 5629   0.319   2.851   1.457  0.5421 -0.0909  1.2740
 1806WAT     H2 5630   0.224   2.846   1.575 -0.1524 -0.5623  0.6988
 1807WAT      O 5631   3.983   1.975   3.250 -0.3328  0.7002  0.0159
 1807WAT     H1 5632   3.903   2.012   3.286  0.5072  2.2545  0.3849
 1807WAT     H2 5633   4.048   1.985   3.319 -0.5594 -4.0003  1.2615
 1808WAT      O 5634   0.959   0.327   3.947 -0.1131 -0.3482 -0.5960
 1808WAT     H1 5635   0.893   0.260   3.929 -0.6101  0.1223 -0.5488
 1808WAT     H2 5636   0.927   0.405   3.903  0.3608 -0.0821 -0.4780
 1809WAT      O 5637   0.166   1.915   4.428 -0.0667  0.2801 -0.0254
 1809WAT     H1 5638   0.205   1.848   4.485  0.8979  0.8388 -0.0092
 1809WAT     H2 5639   0.174   1.878   4.340  0.2591  0.2670  0.0057
 1810WAT      O 5640   1.896   1.734   1.706  0.0267 -0.2441 -0.0587
 1810WAT     H1 5641   1.930   1.724   1.617  2.4715  1.3741  0.5988
 1810WAT     H2 5642   1.801   1.740   1.695  0.1402 -1.4792 -2.3839
 1811WAT      O 5643   3.024   3.648   5.771 -0.6451 -0.1678  0.2112
 1811WAT     H1 5644   3.014   3.552   5.768 -0.6527 -0.1896 -3.3332
 1811WAT     H2 5645   2.936   3.680   5.788 -0.3358 -0.6534  3.6382
 1812WAT      O 5646   2.098   2.680   5.758 -0.1317  0.0603 -0.0695
 1812WAT     H1 5647   2.079   2.592   5.790 -0.6713  0.2848  0.2306
 1812WAT     H2 5648   2.075   2.737   5.830 -0.7342  0.5220 -0.6123
 1813WAT      O 5649   3.023   1.425   4.314 -0.4253  0.0220  0.7807
 1813WAT     H1 5650   2.941   1.432   4.363 -2.2965  0.4358 -2.1512
 1813WAT     H2 5651   3.017   1.494   4.247  0.9519 -1.8122 -1.3626
 1814WAT      O 5652   0.633   5.149   1.383  0.7331  0.1325  0.3625
 1814WAT     H1 5653   0.601   5.157   1.473  0.9811  0.0752  0.4563
 1814WAT     H2 5654   0.588   5.219   1.335  1.4961  0.9262  0.7810
 1815WAT      O 5655   1.175   2.855   0.034  0.4668  0.8515 -0.7592
 1815WAT     H1 5656   1.130   2.799  -0.029  1.3700 -0.1531 -0.5441
 1815WAT     H2 5657   1.268   2.833   0.023  0.7257  1.4220  0.1837
 1816WAT      O 5658   0.063   2.500   2.241 -0.3659  0.2619  0.3392
 1816WAT     H1 5659   0.016   2.458   2.313  2.7971 -0.4605  2.1982
 1816WAT     H2 5660   0.072   2.591   2.268 -0.0819  0.2262  0.3695
 1817WAT      O 5661   0.543   4.585   3.932  0.3474 -0.2239 -0.3351
 1817WAT     H1 5662   0.569   4.591   4.023 -0.2540  0.0429 -0.1765
 1817WAT     H2 5663   0.450   4.563   3.934  0.4603 -0.7921 -0.8860
 1818WAT      O 5664   0.079   4.598   3.603 -0.3702  0.2879 -0.4806
 1818WAT     H1 5665   0.025   4.631   3.531 -0.9946  1.0780  0.3240
 1818WAT     H2 5666   0.136   4.671   3.627 -1.0706  0.4873  0.6669
 1819WAT      O 5667   2.876   4.145   4.795  0.3907  0.5161  0.4935
 1819WAT     H1 5668   2.965   4.155   4.827  0.4296  1.4676  0.1349
 1819WAT     H2 5669   2.845   4.235   4.783  0.4634  0.2422 -2.3055
 1820WAT      O 5670   0.280   2.962   5.776  0.4070  0.3472  0.3254
 1820WAT     H1 5671   0.196   2.994   5.811  0.4918  0.7955  0.1311
 1820WAT     H2 5672   0.256   2.918   5.695  0.0831 -1.6197  1.4346
 1821WAT      O 5673   3.746   3.840   4.400 -0.5655  0.0427  0.3488
 1821WAT     H1 5674   3.765   3.753   4.434  0.8097 -0.1825 -0.9162
 1821WAT     H2 5675   3.721   3.891   4.477 -0.3860 -1.1865  1.2501
 1822WAT      O 5676   4.202   2.686   1.382  0.9386  0.1583  0.3747
 1822WAT     H1 5677   4.296   2.683   1.395  1.4542 -0.0022 -2.6864
 1822WAT     H2 5678   4.190   2.737   1.302 -1.5156 -0.5083  0.2298
 1823WAT      O 5679   1.131   3.052   0.214  0.0881 -0.2188  0.2515
 1823WAT     H1 5680   1.206   3.032   0.271 -0.2034 -0.1336  0.6727
 1823WAT     H2 5681   1.127   2.978   0.153  1.5621  0.6010 -0.8918
 1824WAT      O 5682   4.568   2.948   4.162 -0.0034  0.1392  0.0860
 1824WAT     H1 5683   4.488   2.897   4.154 -1.0476  1.4400  1.5686
 1824WAT     H2 5684   4.620   2.901   4.228 -0.2635  0.1589  0.3044
 1825WAT      O 5685   3.778   2.905   3.375 -0.0268 -0.3678  0.4488
 1825WAT     H1 5686   3.760   2.812   3.364 -0.5101 -0.0869 -1.5513
 1825WAT     H2 5687   3.865   2.916   3.336 -0.9318  0.3494 -1.5198
 1826WAT      O 5688   3.332   3.136   4.971  0.8356 -0.1346  0.5937
 1826WAT     H1 5689   3.378   3.202   4.919  2.3086  1.1337  3.2885
 1826WAT     H2 5690   3.240   3.161   4.966  0.6438 -1.0282 -2.5811
 1827WAT      O 5691   1.440   4.186   3.838  0.2350 -0.3260  0.5303
 1827WAT     H1 5692   1.514   4.136   3.803  0.2493 -0.6535  1.0155
 1827WAT     H2 5693   1.466   4.209   3.927 -0.5168 -1.0424  0.9525
 1828WAT      O 5694   2.134   3.008   0.149 -0.2748 -0.0856 -0.1344
 1828WAT     H1 5695   2.230   3.012   0.150 -0.3065  1.5707 -0.7041
 1828WAT     H2 5696   2.108   3.060   0.225 -0.7277  0.1833 -0.4695
 1829WAT      O 5697   4.752   3.471   4.905  0.0952  0.3111  0.2420
 1829WAT     H1 5698   4.703   3.513   4.975 -0.9735 -0.2757 -0.1294
 1829WAT     H2 5699   4.837   3.514   4.906 -0.3753  1.2550  1.0004
 1830WAT      O 5700   4.419   2.222   4.814  0.3858 -0.3828 -0.0009
 1830WAT     H1 5701   4.337   2.271   4.828  0.7029  0.6938 -1.5818
 1830WAT     H2 5702   4.429   2.169   4.893 -0.4671  1.4319  1.4184
 1831WAT      O 5703   2.225   0.304   3.745 -0.2243  0.1083 -0.1277
 1831WAT     H1 5704   2.261   0.259   3.669 -0.3594 -2.7959  1.3396
 1831WAT     H2 5705   2.130   0.295   3.735 -0.2345 -1.8935  1.1196
 1832WAT      O 5706   1.596   1.163   0.738  0.4063 -0.4577 -0.2837
 1832WAT     H1 5707   1.532   1.113   0.687 -0.5558  1.5899 -1.1930
 1832WAT     H2 5708   1.544   1.213   0.800  1.1278  1.0452 -0.8523
 1833WAT      O 5709   3.235   4.675   3.676  0.1615  0.1176  0.1153
 1833WAT     H1 5710   3.152   4.679   3.723  0.4938 -0.5766  0.7844
 1833WAT     H2 5711   3.260   4.767   3.665 -0.2094  0.3083  0.7906
 1834WAT      O 5712   0.035   1.782   3.008  0.2685  0.2306 -0.2092
 1834WAT     H1 5713   0.078   1.761   3.091  0.6339  2.1254  0.1200
 1834WAT     H2 5714   0.029   1.878   3.008 -1.9493  0.1370 -1.2682
 1835WAT      O 5715   0.294   1.946   5.363  0.0159 -0.0967  0.5669
 1835WAT     H1 5716   0.248   1.976   5.284  1.9032  0.1975 -0.4682
 1835WAT     H2 5717   0.279   2.015   5.427 -0.5790  0.2213  0.1021
 1836WAT      O 5718   2.659   2.199   0.992  0.5494  0.3632  0.4958
 1836WAT     H1 5719   2.599   2.124   0.998 -0.3549  1.0579  0.2451
 1836WAT     H2 5720   2.731   2.166   0.938  0.2012 -0.3573  0.4481
 1837WAT      O 5721   4.624   3.112   0.196  0.5746  0.2630  0.8947
 1837WAT     H1 5722   4.639   3.018   0.204  0.5334  0.2353  0.6598
 1837WAT     H2 5723   4.539   3.126   0.239  0.8690  0.2888  1.4664
 1838WAT      O 5724   2.780   3.732   0.214 -0.1221  0.3780 -0.4821
 1838WAT     H1 5725   2.760   3.786   0.137  0.7648  0.5581 -0.5932
 1838WAT     H2 5726   2.872   3.750   0.234 -0.9857  2.4630  2.3004
 1839WAT      O 5727   4.487   3.386   4.507  0.0172  0.1662 -0.5464
 1839WAT     H1 5728   4.415   3.343   4.552  1.1771  0.4511  1.7379
 1839WAT     H2 5729   4.496   3.339   4.424 -1.1422 -1.5165  0.2431
 1840WAT      O 5730   1.987   4.409   1.830  0.2380 -0.2713  0.4880
 1840WAT     H1 5731   1.976   4.334   1.771 -1.2450 -0.2009  0.6410
 1840WAT     H2 5732   1.961   4.376   1.916 -0.7560  0.4917  0.4952
 1841WAT      O 5733   2.471   2.578   3.725  0.0706  0.2896 -0.7393
 1841WAT     H1 5734   2.450   2.645   3.791 -0.1456 -0.4161 -0.0762
 1841WAT     H2 5735   2.543   2.529   3.764  0.3740  0.2647 -1.3231
 1842WAT      O 5736   3.658   3.039   3.836 -0.2431 -0.2264 -0.8584
 1842WAT     H1 5737   3.659   3.104   3.907 -0.2393 -0.0248 -1.0431
 1842WAT     H2 5738   3.571   3.047   3.797  0.2294  0.6508 -1.7795
 1843WAT      O 5739   1.527   2.987   1.689 -0.0744  0.7436  0.2336
 1843WAT     H1 5740   1.483   2.914   1.731  0.0873  1.0521  0.9475
 1843WAT     H2 5741   1.522   2.967   1.595  0.6690 -0.5628  0.4577
 1844WAT      O 5742   2.930   2.021   0.362 -0.0381  0.5764 -0.3664
 1844WAT     H1 5743   2.892   2.014   0.449  1.1149  1.7832  0.2734
 1844WAT     H2 5744   2.879   1.961   0.308 -0.2703 -0.7783  1.3019
 1845WAT      O 5745   4.321   3.708   4.426 -0.3710  0.1755  0.4611
 1845WAT     H1 5746   4.383   3.764   4.474  0.0734 -0.8388  1.1195
 1845WAT     H2 5747   4.235   3.748   4.443 -0.0771  0.6086  0.9921
 1846WAT      O 5748   1.457   0.294   3.935 -0.2106 -0.4861 -0.1040
 1846WAT     H1 5749   1.373   0.263   3.969  0.8432 -2.3192  0.9781
 1846WAT     H2 5750   1.517   0.221   3.949  1.6115  0.8126 -0.7594
 1847WAT      O 5751   3.792   2.042   0.581  0.1225 -0.2115  0.3216
 1847WAT     H1 5752   3.800   1.981   0.508 -0.1974  0.1518 -0.0194
 1847WAT     H2 5753   3.724   2.003   0.637  0.4204 -0.5264  0.4679
 1848WAT      O 5754   3.402   4.604   3.924 -0.1003  0.0053  0.0950
 1848WAT     H1 5755   3.465   4.670   3.895 -0.3706 -0.5829 -2.0066
 1848WAT     H2 5756   3.334   4.605   3.857  0.0979 -2.6716 -0.2639
 1849WAT      O 5757   2.893   2.528   4.818 -0.3106 -0.2216  0.3364
 1849WAT     H1 5758   2.976   2.491   4.847 -0.4356 -1.2256 -0.5510
 1849WAT     H2 5759   2.914   2.575   4.737 -0.4489  0.2964  0.5957
 1850WAT      O 5760   4.241   2.179   3.084  0.1704 -0.1960  0.5908
 1850WAT     H1 5761   4.163   2.205   3.133 -0.7338 -1.0250 -0.3661
 1850WAT     H2 5762   4.248   2.244   3.014 -0.2954 -0.7192  0.0455
 1851WAT      O 5763   0.305   1.381   5.356 -0.3099  0.4908 -0.0366
 1851WAT     H1 5764   0.317   1.322   5.431 -0.5769  0.3685 -0.0912
 1851WAT     H2 5765   0.359   1.343   5.287 -1.2256 -0.2122 -0.3670
 1852WAT      O 5766   1.605   1.637   5.146  0.3041 -0.4430 -0.7304
 1852WAT     H1 5767   1.660   1.716   5.143 -2.2710  1.4542 -1.2969
 1852WAT     H2 5768   1.543   1.654   5.217 -1.4821 -1.1055 -2.0677
 1853WAT      O 5769   1.984   2.083   2.066 -0.4136 -0.1481 -0.2017
 1853WAT     H1 5770   1.924   2.116   2.133  2.8167  1.9859  1.9485
 1853WAT     H2 5771   1.993   1.990   2.086  1.4073  0.5988  3.4252
 1854WAT      O 5772   1.066   2.756   2.680 -0.4909 -0.2743 -0.1944
 1854WAT     H1 5773   1.153   2.766   2.642  0.6815  0.0235  2.3394
 1854WAT     H2 5774   1.067   2.668   2.718 -0.7748  0.2111  0.9943
 1855WAT      O 5775   2.054   2.306   2.301 -0.6263  0.1107 -0.0165
 1855WAT     H1 5776   2.133   2.258   2.276  0.5652  0.8621  2.0743
 1855WAT     H2 5777   1.988   2.237   2.316  0.3789 -0.7287  0.6861
 1856WAT      O 5778   4.398   4.489   3.663 -0.4196 -0.4396 -0.2152
 1856WAT     H1 5779   4.410   4.582   3.684 -0.6936 -0.6209  0.8083
 1856WAT     H2 5780   4.329   4.460   3.723  1.6994 -2.0063  1.6311
 1857WAT      O 5781   1.613   3.784   4.744  0.5342 -0.0760  0.0640
 1857WAT     H1 5782   1.573   3.738   4.817  0.9636 -1.3613 -0.4874
 1857WAT     H2 5783   1.586   3.735   4.667  0.7326  0.7996 -0.5851
 1858WAT      O 5784   4.762   2.490   1.692  0.3366 -0.0331 -0.4663
 1858WAT     H1 5785   4.824   2.509   1.621 -1.0867  0.9458 -1.4899
 1858WAT     H2 5786   4.755   2.572   1.740  0.5432 -0.4179  0.2354
 1859WAT      O 5787   4.762   2.222   5.241  0.4870 -0.4367  0.4006
 1859WAT     H1 5788   4.760   2.297   5.301 -1.0986 -1.1177  1.2677
 1859WAT     H2 5789   4.854   2.198   5.236  0.8530  0.6884  1.2400
 1860WAT      O 5790   1.812   0.956   4.105  0.2853 -0.6375  0.3347
 1860WAT     H1 5791   1.903   0.926   4.098  0.9119  1.3270 -0.4899
 1860WAT     H2 5792   1.767   0.914   4.031  0.4243 -1.8292  0.8987
 1861WAT      O 5793   1.806   3.594   5.596 -0.3438 -0.2194 -0.3785
 1861WAT     H1 5794   1.845   3.507   5.597 -1.0405 -0.5634 -1.2927
 1861WAT     H2 5795   1.722   3.584   5.641  0.3912  0.4163  1.1938
 1862WAT      O 5796   2.280   0.484   3.933  0.2704 -0.2010  0.0449
 1862WAT     H1 5797   2.238   0.400   3.915 -1.5753  0.6201  0.3078
 1862WAT     H2 5798   2.282   0.528   3.849 -0.7828  0.3459  0.2924
 1863WAT      O 5799   0.096   3.401   0.302  0.2865 -0.5770  0.0335
 1863WAT     H1 5800   0.149   3.394   0.381  0.7370 -1.3189 -0.3319
 1863WAT     H2 5801   0.007   3.378   0.331 -0.2105  2.1722  0.9897
 1864WAT      O 5802   4.865   4.295   4.561  0.0603 -0.5463 -0.0119
 1864WAT     H1 5803   4.931   4.315   4.627  0.1075 -1.9064  0.3807
 1864WAT     H2 5804   4.884   4.205   4.534 -0.9040 -0.5471 -0.7651
 1865WAT      O 5805   1.547   4.082   4.697  0.1644  0.0297 -0.5794
 1865WAT     H1 5806   1.603   4.109   4.624  1.3045  0.3922  0.3954
 1865WAT     H2 5807   1.562   3.988   4.704  2.4103  0.4083  1.0142
 1866WAT      O 5808   3.693   4.450   3.640  0.1481 -0.4104 -0.0447
 1866WAT     H1 5809   3.598   4.440   3.632  0.1552  0.2105 -1.0752
 1866WAT     H2 5810   3.708   4.463   3.733 -1.0362  1.9384 -0.1223
 1867WAT      O 5811   0.152   1.284   2.702  0.7218  0.0190 -0.2524
 1867WAT     H1 5812   0.126   1.216   2.764 -3.4535  0.8573 -0.7850
 1867WAT     H2 5813   0.204   1.345   2.755  2.5732 -2.3094  0.7809
 1868WAT      O 5814   3.187   2.692   1.502  0.6244  0.4772  0.3581
 1868WAT     H1 5815   3.186   2.652   1.415 -0.2790  0.2663  0.4534
 1868WAT     H2 5816   3.124   2.640   1.552  0.0658  1.4895  0.7279
 1869WAT      O 5817   4.849   2.304   3.693  0.4636 -0.1210  0.0141
 1869WAT     H1 5818   4.865   2.394   3.721  0.2390  0.3365 -1.2689
 1869WAT     H2 5819   4.827   2.311   3.600 -2.1784 -1.2069  0.4527
 1870WAT      O 5820   2.202   3.570   3.579 -0.4523  0.6552 -0.2423
 1870WAT     H1 5821   2.192   3.528   3.494 -3.7029 -0.2816  0.4792
 1870WAT     H2 5822   2.280   3.529   3.617  1.6476  1.7543 -3.0016
 1871WAT      O 5823   3.361   2.779   0.067  0.0797  0.2027 -0.5654
 1871WAT     H1 5824   3.355   2.867   0.102 -1.2666 -0.2163  0.3497
 1871WAT     H2 5825   3.335   2.787  -0.025 -1.0228  0.6062 -0.2207
 1872WAT      O 5826   2.280   2.996   3.647 -0.4388  0.4045 -0.1450
 1872WAT     H1 5827   2.203   3.012   3.703  1.4882 -0.4350  3.0174
 1872WAT     H2 5828   2.278   2.901   3.631 -0.2975  0.4561 -0.4754
 1873WAT      O 5829   1.478   4.392   1.688  0.1291 -0.2918 -0.9756
 1873WAT     H1 5830   1.528   4.472   1.707 -0.3033 -0.3424  0.4594
 1873WAT     H2 5831   1.510   4.365   1.601  1.4840  0.5089 -0.7700
 1874WAT      O 5832   4.346   1.852   2.781 -0.1821 -0.4314 -0.1726
 1874WAT     H1 5833   4.313   1.827   2.867  1.8215  1.6602  1.3221
 1874WAT     H2 5834   4.337   1.773   2.728 -1.8089 -1.6846  1.8224
 1875WAT      O 5835   4.715   1.921   0.940  0.2178 -0.3189 -0.3245
 1875WAT     H1 5836   4.746   2.002   0.981  0.7404 -1.3862  1.4795
 1875WAT     H2 5837   4.780   1.903   0.871  0.9145  0.0521  0.2176
 1876WAT      O 5838   3.209   2.383   0.409 -0.2292 -0.0859  0.2345
 1876WAT     H1 5839   3.281   2.352   0.463 -2.1081 -1.5984  2.0729
 1876WAT     H2 5840   3.189   2.470   0.442 -0.8866 -0.7098  1.5371
 1877WAT      O 5841   2.439   3.995   0.813  0.5877 -0.2705 -0.3909
 1877WAT     H1 5842   2.418   4.069   0.869  0.5373 -1.4657  1.2459
 1877WAT     H2 5843   2.388   3.922   0.848  2.0679 -1.5411 -0.7441
 1878WAT      O 5844   0.160   2.318   4.733 -0.3341 -0.0702  0.4757
 1878WAT     H1 5845   0.202   2.237   4.703  0.7223  0.0693  1.5077
 1878WAT     H2 5846   0.072   2.291   4.760 -0.5907 -0.5537 -0.7380
 1879WAT      O 5847   2.424   2.236   4.761  0.0931 -0.8679  0.3834
 1879WAT     H1 5848   2.391   2.177   4.693 -1.1370  0.4272 -0.1816
 1879WAT     H2 5849   2.518   2.241   4.745 -0.2403 -0.1547 -1.5914
 1880WAT      O 5850   2.728   2.874   4.041 -0.7101 -0.0136  0.2454
 1880WAT     H1 5851   2.802   2.934   4.029 -0.2495 -0.6915 -0.3714
 1880WAT     H2 5852   2.749   2.826   4.121 -0.2365 -0.5296 -0.1752
 1881WAT      O 5853   4.042   2.283   0.144  0.1764 -0.3416  0.2314
 1881WAT     H1 5854   4.125   2.242   0.170  0.1155 -0.6774 -0.0894
 1881WAT     H2 5855   4.068   2.363   0.098  0.3846 -1.1025 -1.0382
 1882WAT      O 5856   2.203   3.329   5.509  0.2835 -0.1753 -0.1793
 1882WAT     H1 5857   2.184   3.235   5.505  1.4828 -0.4121 -1.0267
 1882WAT     H2 5858   2.256   3.345   5.431 -1.0388  1.4898 -0.7956
 1883WAT      O 5859   2.616   1.499   0.022 -0.9239 -0.0127  0.6422
 1883WAT     H1 5860   2.562   1.574  -0.003 -1.1520 -0.5200 -0.4199
 1883WAT     H2 5861   2.706   1.533   0.018 -1.0014  0.1311 -0.1789
 1884WAT      O 5862   3.532   2.881   0.356 -0.0532  0.5653 -0.1388
 1884WAT     H1 5863   3.546   2.851   0.266  1.8107 -1.3333  0.6965
 1884WAT     H2 5864   3.618   2.912   0.384  0.0479 -1.2040  1.7390
 1885WAT      O 5865   0.602   0.722   2.267  0.2145 -0.2336  0.3918
 1885WAT     H1 5866   0.584   0.643   2.318 -1.6847 -0.3143 -0.3292
 1885WAT     H2 5867   0.560   0.792   2.317  0.0847 -0.0031 -0.0383
 1886WAT      O 5868   1.770   3.657   2.328  0.7666 -0.4361 -0.3833
 1886WAT     H1 5869   1.680   3.634   2.349  0.3268  2.2700  1.1077
 1886WAT     H2 5870   1.781   3.633   2.236 -0.9865 -2.0540 -0.2284
 1887WAT      O 5871   2.114   2.421   1.307  0.7496 -0.1940 -0.4262
 1887WAT     H1 5872   2.192   2.366   1.297  0.7449 -0.3017  0.0965
 1887WAT     H2 5873   2.062   2.378   1.375  0.4849  0.1596 -0.3986
 1888WAT      O 5874   1.635   3.864   5.283 -0.0513 -0.1154  0.0195
 1888WAT     H1 5875   1.586   3.825   5.355  1.8780  0.9668  2.0259
 1888WAT     H2 5876   1.711   3.806   5.272 -0.3495 -0.3066 -1.2434
 1889WAT      O 5877   2.599   3.203   1.553 -0.4259  0.3261  0.6862
 1889WAT     H1 5878   2.680   3.235   1.592 -0.4427  2.6132 -0.9245
 1889WAT     H2 5879   2.608   3.108   1.554  0.7132  0.3771  3.6416
 1890WAT      O 5880   4.324   2.415   1.812  1.1116  0.3456 -0.8566
 1890WAT     H1 5881   4.285   2.379   1.732  0.4860 -0.2186 -0.3038
 1890WAT     H2 5882   4.261   2.396   1.881  2.6107 -1.1176  0.1818
 1891WAT      O 5883   0.200   3.799   5.021  0.3579  0.2487  0.7384
 1891WAT     H1 5884   0.187   3.714   4.978 -1.2241  1.0540 -0.5181
 1891WAT     H2 5885   0.292   3.820   5.005  1.0515 -1.6404  1.9370
 1892WAT      O 5886   0.660   3.541   4.684  0.5782 -0.2135  0.3144
 1892WAT     H1 5887   0.666   3.572   4.774  1.9030  0.6466 -0.0424
 1892WAT     H2 5888   0.639   3.448   4.692 -1.6651  0.3225  1.4357
 1893WAT      O 5889   4.076   3.271   3.905  0.5720  0.0311  0.0147
 1893WAT     H1 5890   4.079   3.332   3.978 -3.1915 -0.0797  0.4635
 1893WAT     H2 5891   4.101   3.186   3.943  0.4733  0.3142  0.7216
 1894WAT      O 5892   2.416   2.476   5.041 -0.3863 -0.0075 -0.6614
 1894WAT     H1 5893   2.331   2.458   5.001 -0.0808  0.6660 -1.6657
 1894WAT     H2 5894   2.395   2.512   5.127 -1.0907 -0.5944 -0.5795
 1895WAT      O 5895   4.186   2.724   0.920 -0.0776  0.1519  0.0944
 1895WAT     H1 5896   4.149   2.734   1.007 -0.1731  1.9743 -0.1084
 1895WAT     H2 5897   4.163   2.635   0.894 -1.3138  0.0676  1.3429
 1896WAT      O 5898   1.032   3.495   4.794 -0.3139 -0.3026 -0.5042
 1896WAT     H1 5899   0.977   3.574   4.794 -0.0778 -0.1280 -1.0576
 1896WAT     H2 5900   1.094   3.510   4.722  0.6539 -0.3542  0.3108
 1897WAT      O 5901   0.549   1.320   1.077 -0.1724  0.1978  0.1910
 1897WAT     H1 5902   0.604   1.293   1.151 -0.4789  0.0993  0.3801
 1897WAT     H2 5903   0.585   1.272   1.002  0.2228  0.3972  0.2440
 1898WAT      O 5904   1.853   3.241   4.558  0.3290 -0.1207 -0.8239
 1898WAT     H1 5905   1.811   3.171   4.608  0.2465  0.1644 -0.4896
 1898WAT     H2 5906   1.864   3.205   4.470  3.4729 -1.8886  0.1337
 1899WAT      O 5907   0.864   4.618   3.184 -0.3347 -0.1799  0.6175
 1899WAT     H1 5908   0.912   4.646   3.107  0.2284 -0.2612  0.9333
 1899WAT     H2 5909   0.774   4.605   3.153  0.0272 -0.8756 -0.1752
 1900WAT      O 5910   3.631   3.522   1.834 -0.3006 -0.1930 -0.0723
 1900WAT     H1 5911   3.656   3.613   1.848  0.8186 -0.5253  0.1849
 1900WAT     H2 5912   3.687   3.472   1.893 -1.5197 -0.9971  0.4389
 1901WAT      O 5913   2.159   2.941   0.800  0.2371  0.0348 -0.5015
 1901WAT     H1 5914   2.118   2.888   0.868  1.2798 -0.2553 -0.0745
 1901WAT     H2 5915   2.222   2.996   0.847 -0.0343  0.8487 -1.0710
 1902WAT      O 5916   1.075   1.803   2.849  0.2273  0.0747  0.6603
 1902WAT     H1 5917   1.089   1.807   2.944 -1.2672  1.5686  0.8766
 1902WAT     H2 5918   1.073   1.895   2.822  1.3538 -0.3456 -0.9649
 1903WAT      O 5919   0.582   2.358   0.738 -0.1975 -0.3987 -0.0259
 1903WAT     H1 5920   0.598   2.280   0.685 -1.9531 -1.0676  0.3351
 1903WAT     H2 5921   0.614   2.336   0.825  0.7650 -0.0969 -0.2968
 1904WAT      O 5922   3.577   2.661   2.116 -0.1169 -0.4203  0.0277
 1904WAT     H1 5923   3.577   2.617   2.031  0.0509 -2.2931  0.9402
 1904WAT     H2 5924   3.665   2.645   2.151  0.4399  1.8724 -0.1595
 1905WAT      O 5925   4.403   4.387   4.026 -0.1555  0.4200 -0.9868
 1905WAT     H1 5926   4.329   4.433   4.065  0.7660  1.8409 -0.8498
 1905WAT     H2 5927   4.365   4.340   3.951 -1.3426  0.3627 -0.3691
 1906WAT      O 5928   3.152   2.362   4.278  0.4123  0.1366 -0.2266
 1906WAT     H1 5929   3.208   2.362   4.356  0.0936  0.0296  0.0041
 1906WAT     H2 5930   3.202   2.411   4.213 -0.3965  2.5997  0.8507
 1907WAT      O 5931   1.250   3.679   4.693  0.1062  0.4186  0.4135
 1907WAT     H1 5932   1.327   3.687   4.637  1.0142 -0.0533  1.5326
 1907WAT     H2 5933   1.277   3.718   4.776 -0.9787  0.5320  0.7301
 1908WAT      O 5934   1.319   3.309   4.596 -0.2185  0.0179 -0.6405
 1908WAT     H1 5935   1.311   3.381   4.534  1.1098 -1.2977 -2.4692
 1908WAT     H2 5936   1.230   3.278   4.608 -0.6139  0.9015 -1.1758
 1909WAT      O 5937   2.653   4.028   2.181 -0.2000  0.5307 -0.7212
 1909WAT     H1 5938   2.626   3.971   2.253  0.3485 -0.2364 -1.1116
 1909WAT     H2 5939   2.577   4.085   2.167 -0.7273 -0.0307 -0.2583
 1910WAT      O 5940   0.190   2.270   0.694  0.4146  0.1434  0.0101
 1910WAT     H1 5941   0.260   2.335   0.687  1.4597 -0.9401  0.2126
 1910WAT     H2 5942   0.194   2.221   0.611 -0.6522  0.5952 -0.3290
 1911WAT      O 5943   1.472   2.941   0.592 -0.8993 -0.3579  0.3146
 1911WAT     H1 5944   1.541   2.875   0.587 -0.4062  0.2281 -0.6835
 1911WAT     H2 5945   1.471   2.967   0.684 -0.1096 -0.7048  0.4278
 1912WAT      O 5946   1.611   3.601   4.007 -0.3433 -0.0997 -0.0863
 1912WAT     H1 5947   1.537   3.575   3.952 -0.6221  0.6369 -0.0733
 1912WAT     H2 5948   1.679   3.626   3.946  0.2509 -1.6638 -0.1145
 1913WAT      O 5949   1.618   0.024   3.887  0.0995  0.6672 -0.1196
 1913WAT     H1 5950   1.639  -0.025   3.966 -0.7783  1.9402  0.9519
 1913WAT     H2 5951   1.699   0.026   3.837  0.4535 -0.8473  0.3469
 1914WAT      O 5952   0.642   4.502   4.440  0.2820 -0.7789  0.3057
 1914WAT     H1 5953   0.680   4.506   4.528  0.8493 -0.6424  0.0623
 1914WAT     H2 5954   0.548   4.507   4.454  0.4181  1.0913  0.8089
 1915WAT      O 5955   4.688   3.430   2.814  0.0578  0.4254 -0.0226
 1915WAT     H1 5956   4.613   3.370   2.823 -0.2779  0.8180 -0.2161
 1915WAT     H2 5957   4.734   3.422   2.898  0.6844 -0.9924 -0.4648
 1916WAT      O 5958   0.882   1.766   4.233 -0.4066  0.5809 -0.2194
 1916WAT     H1 5959   0.808   1.760   4.293 -0.0067  2.3553  0.5047
 1916WAT     H2 5960   0.848   1.733   4.150 -0.8248 -2.4168  0.9967
 1917WAT      O 5961   1.761   2.531   5.812  0.0640 -0.6652 -0.1240
 1917WAT     H1 5962   1.704   2.473   5.762  1.5826 -3.0940  0.7861
 1917WAT     H2 5963   1.849   2.498   5.795  0.9990  1.3165  0.5923
 1918WAT      O 5964   0.408   2.345   4.861  0.4787 -0.6647 -0.4315
 1918WAT     H1 5965   0.325   2.339   4.813 -0.2710 -1.2269  0.8729
 1918WAT     H2 5966   0.473   2.310   4.801 -0.1216  0.3214 -1.7008
 1919WAT      O 5967   2.495   1.411   4.363 -0.1245  0.4340  0.4393
 1919WAT     H1 5968   2.474   1.326   4.323 -0.3263 -0.2138  1.8474
 1919WAT     H2 5969   2.590   1.418   4.355 -0.2874  1.0093 -1.4193
 1920WAT      O 5970   1.234   2.436   4.920 -0.4296 -0.5149 -0.0239
 1920WAT     H1 5971   1.163   2.491   4.954 -0.1527  0.3899 -0.8644
 1920WAT     H2 5972   1.273   2.489   4.850  1.5513 -0.6893  0.9064
 1921WAT      O 5973   1.897   1.543   4.668  0.2006 -0.3588 -0.1088
 1921WAT     H1 5974   1.863   1.633   4.665  1.6432  0.2223 -0.1396
 1921WAT     H2 5975   1.936   1.535   4.754  1.0176 -0.5778 -0.4891
 1922WAT      O 5976   2.046   4.006   4.553  0.6147 -0.0196  0.3496
 1922WAT     H1 5977   2.082   3.959   4.628 -1.5857  0.5037  1.8161
 1922WAT     H2 5978   2.119   4.057   4.519  2.2934 -2.1278  0.5779
 1923WAT      O 5979   2.107   4.517   2.958 -0.1633 -0.1002  0.4087
 1923WAT     H1 5980   2.148   4.446   2.908  0.5070 -1.0936  2.2867
 1923WAT     H2 5981   2.067   4.474   3.034 -0.7743  1.3988  0.9812
 1924WAT      O 5982   2.211   2.029   1.475  0.0884  0.1425  0.0715
 1924WAT     H1 5983   2.217   2.119   1.443  2.3261  0.3707  1.0101
 1924WAT     H2 5984   2.123   2.001   1.449  0.7902  1.1215 -4.0392
 1925WAT      O 5985   0.457   3.161   2.869  0.1738 -0.2546  0.7380
 1925WAT     H1 5986   0.477   3.076   2.829  0.6919  0.2432 -0.0670
 1925WAT     H2 5987   0.410   3.209   2.802 -0.2216  0.0625  1.2361
 1926WAT      O 5988   4.490   3.575   3.552 -0.4446  0.6903 -0.2805
 1926WAT     H1 5989   4.496   3.621   3.468  0.6811 -2.3782 -2.0104
 1926WAT     H2 5990   4.581   3.558   3.577 -0.7898  0.8228  1.1830
 1927WAT      O 5991   4.045   5.173   3.586  0.1091 -0.1704  0.3562
 1927WAT     H1 5992   4.038   5.103   3.651 -1.0230 -0.9130 -0.5171
 1927WAT     H2 5993   4.079   5.248   3.635 -1.1979 -0.5483  1.9480
 1928WAT      O 5994   1.869   2.296   5.259 -0.3010  0.0709 -0.4122
 1928WAT     H1 5995   1.886   2.208   5.292  0.1930  0.0122 -0.8073
 1928WAT     H2 5996   1.950   2.345   5.277 -1.0250  0.8170  0.9765
 1929WAT      O 5997   3.309   1.777   4.187  0.5251 -0.1187 -0.3276
 1929WAT     H1 5998   3.248   1.812   4.252  1.4540 -0.1198  0.5739
 1929WAT     H2 5999   3.290   1.683   4.185  1.3847 -0.3445  0.9595
 1930WAT      O 6000   2.875   5.068   2.867 -0.0752  0.5091 -0.7336
 1930WAT     H1 6001   2.923   5.108   2.939  1.4842 -0.4328 -1.2056
 1930WAT     H2 6002   2.807   5.016   2.909 -1.0847  2.2842 -0.0680
 1931WAT      O 6003   1.160   4.354   2.914 -0.2473 -0.3520  0.3925
 1931WAT     H1 6004   1.077   4.329   2.956 -0.7783  0.6220 -0.0390
 1931WAT     H2 6005   1.143   4.347   2.820  0.4912 -1.1445  0.3100
 1932WAT      O 6006   2.595   2.207   0.211 -0.2851 -0.2882  0.2643
 1932WAT     H1 6007   2.611   2.172   0.299 -0.9588  0.6654  0.7838
 1932WAT     H2 6008   2.588   2.301   0.224 -1.4747 -0.2323 -0.6434
 1933WAT      O 6009   3.551   2.690   4.767  0.1012  0.0036  0.5066
 1933WAT     H1 6010   3.617   2.744   4.811 -0.8026  0.6980  1.0428
 1933WAT     H2 6011   3.570   2.701   4.674  2.0316 -1.4782  0.6586
 1934WAT      O 6012   0.678   4.418   4.189  0.2075  0.4020 -0.3475
 1934WAT     H1 6013   0.673   4.407   4.284 -0.1792 -2.0052 -0.5899
 1934WAT     H2 6014   0.767   4.447   4.172  1.6052 -2.9060  0.5473
 1935WAT      O 6015   3.587   2.622   5.189 -0.2069 -0.2239 -0.5848
 1935WAT     H1 6016   3.662   2.578   5.151  0.0752 -0.3812  0.1350
 1935WAT     H2 6017   3.526   2.551   5.212  0.7924 -0.4167  1.7697
 1936WAT      O 6018   3.915   4.184   2.893  0.3290  0.7437 -0.1737
 1936WAT     H1 6019   3.917   4.184   2.798  0.8719 -1.0918 -0.2099
 1936WAT     H2 6020   3.907   4.091   2.917  0.6915  1.1121  1.5660
 1937WAT      O 6021   1.667   3.599   5.004 -0.2251 -0.5089 -0.7634
 1937WAT     H1 6022   1.677   3.612   5.098  0.2124  1.0391 -0.9982
 1937WAT     H2 6023   1.756   3.589   4.971 -0.3757 -1.0638 -1.0188
 1938WAT      O 6024   4.695   0.004   3.053 -0.5300  0.2707 -0.3340
 1938WAT     H1 6025   4.714   0.097   3.065  0.0156  0.0308  0.7664
 1938WAT     H2 6026   4.670  -0.003   2.961  1.1163  1.2274 -0.9139
 1939WAT      O 6027   0.227   5.380   2.649  0.2090 -0.7548  0.2786
 1939WAT     H1 6028   0.210   5.463   2.605  0.6221  0.5080  2.3383
 1939WAT     H2 6029   0.287   5.333   2.591  0.8013  0.8405 -0.4565
 1940WAT      O 6030   1.358   2.648   1.962 -0.2321  0.3872  0.6330
 1940WAT     H1 6031   1.264   2.648   1.941 -0.0946  0.5550  0.0103
 1940WAT     H2 6032   1.361   2.660   2.057 -0.8764 -0.9518  0.8403
 1941WAT      O 6033   1.322   2.870   5.455 -0.2716  0.3333 -0.0562
 1941WAT     H1 6034   1.281   2.802   5.402 -0.8126 -0.0453  0.8280
 1941WAT     H2 6035   1.410   2.838   5.472 -0.9096 -0.7512  1.3798
 1942WAT      O 6036   2.398   3.573   2.731 -0.6822  0.3648  0.6008
 1942WAT     H1 6037   2.442   3.630   2.794 -2.7833  2.0750  0.6346
 1942WAT     H2 6038   2.466   3.512   2.703  0.8924  0.9527  2.8389
 1943WAT      O 6039   2.994   2.179   1.214  0.0397  0.5223 -0.5699
 1943WAT     H1 6040   2.976   2.256   1.159  0.3453  2.1050  1.4401
 1943WAT     H2 6041   3.089   2.170   1.212  0.0754  0.7534 -0.1205
 1944WAT      O 6042   1.371   3.301   5.437 -0.2730 -0.2961  0.1069
 1944WAT     H1 6043   1.366   3.235   5.368  0.3576 -1.0863  0.7892
 1944WAT     H2 6044   1.355   3.252   5.518  1.6403  0.0680  0.7710
 1945WAT      O 6045   4.635   2.713   2.649  0.5588 -0.0903  0.1398
 1945WAT     H1 6046   4.659   2.712   2.742  1.3400 -0.2497 -0.0528
 1945WAT     H2 6047   4.615   2.621   2.629  1.0300 -0.1646 -0.0028
 1946WAT      O 6048   2.401   3.444   3.736  0.3698  0.1266 -0.7007
 1946WAT     H1 6049   2.462   3.443   3.662  2.3411 -1.6651  0.8731
 1946WAT     H2 6050   2.406   3.357   3.774 -1.0966  0.7884  1.1924
 1947WAT      O 6051   0.812   4.758   2.851 -0.0097  0.0674 -0.2706
 1947WAT     H1 6052   0.841   4.755   2.760  0.8183 -0.1389 -0.0103
 1947WAT     H2 6053   0.720   4.731   2.848 -0.1261  0.5215 -1.0946
 1948WAT      O 6054   3.036   3.607   4.811 -0.3983  0.5673 -0.4326
 1948WAT     H1 6055   3.044   3.628   4.718 -0.9370  0.1217 -0.5888
 1948WAT     H2 6056   2.944   3.580   4.821 -0.8230  2.2195  0.5497
 1949WAT      O 6057   1.280   4.396   0.033  0.5094 -0.0128 -0.2191
 1949WAT     H1 6058   1.203   4.365  -0.015 -0.6276  0.7970  1.0155
 1949WAT     H2 6059   1.250   4.404   0.123  2.8226 -2.4134  0.9206
 1950WAT      O 6060   2.959   2.277   3.131  0.0578  0.6606  0.4629
 1950WAT     H1 6061   2.919   2.361   3.109 -0.7941  0.0108 -0.6050
 1950WAT     H2 6062   2.932   2.219   3.060  0.9788 -0.4107  0.9627
 1951WAT      O 6063   2.017   3.050   3.156  0.2703  0.0559  0.1196
 1951WAT     H1 6064   2.013   2.985   3.086 -0.0899 -0.9763  1.0651
 1951WAT     H2 6065   1.972   3.126   3.121 -0.2811 -0.5981 -0.6134
 1952WAT      O 6066   1.469   3.122   2.179  0.3786 -0.0123 -0.0408
 1952WAT     H1 6067   1.483   3.167   2.096  0.2818  0.0512 -0.0230
 1952WAT     H2 6068   1.394   3.064   2.162 -0.5337  1.0066  0.3943
 1953WAT      O 6069   2.402   3.405   4.680 -0.3212  0.5345  0.0971
 1953WAT     H1 6070   2.472   3.436   4.622  1.3531 -0.2243  1.6582
 1953WAT     H2 6071   2.373   3.323   4.640  0.0196  0.5927 -0.2812
 1954WAT      O 6072   1.769   2.977   5.440  0.1695 -0.4805 -0.2314
 1954WAT     H1 6073   1.823   3.056   5.444 -1.3775  0.5735  2.0429
 1954WAT     H2 6074   1.813   2.915   5.497 -0.2518 -0.1145  0.5057
 1955WAT      O 6075   4.410   0.566   4.245 -0.2275  0.4684 -0.3940
 1955WAT     H1 6076   4.496   0.551   4.285  0.2200  1.5411 -0.9175
 1955WAT     H2 6077   4.367   0.481   4.250  0.6693  0.0332  0.3353
 1956WAT      O 6078   3.821   3.607   4.546 -0.0774  0.0022  0.1356
 1956WAT     H1 6079   3.823   3.551   4.624 -0.2770  0.1444  0.2416
 1956WAT     H2 6080   3.902   3.585   4.500 -0.4427 -0.8223 -0.1367
 1957WAT      O 6081   2.505   4.085   4.391 -0.8251  0.3026  0.9914
 1957WAT     H1 6082   2.418   4.048   4.377 -0.6877  0.6241 -0.9216
 1957WAT     H2 6083   2.558   4.010   4.417 -0.8903 -0.6338 -1.3717
 1958WAT      O 6084   4.920   3.746   0.641  0.1680 -0.5060 -0.2465
 1958WAT     H1 6085   4.917   3.721   0.548 -3.6283 -0.7759 -0.2232
 1958WAT     H2 6086   4.985   3.687   0.679  0.7967 -1.3772 -2.4613
 1959WAT      O 6087   1.694   2.720   2.963 -0.2094  0.7428 -0.4191
 1959WAT     H1 6088   1.707   2.697   2.871 -0.0696 -0.0914 -0.1977
 1959WAT     H2 6089   1.711   2.639   3.011  3.3649  1.9521  0.6644
 1960WAT      O 6090   0.314   1.177   1.598  0.4984  0.6197 -0.7734
 1960WAT     H1 6091   0.299   1.271   1.595  1.3163  0.8265  0.6612
 1960WAT     H2 6092   0.301   1.153   1.690 -3.1850 -1.3323 -1.6376
 1961WAT      O 6093   3.161   4.452   2.137  0.1753 -0.5490  0.1193
 1961WAT     H1 6094   3.121   4.519   2.192  0.6564 -0.6100  0.5487
 1961WAT     H2 6095   3.091   4.386   2.125  0.2916 -0.9040  1.2841
 1962WAT      O 6096   1.756   4.884   1.662  0.3062  0.3499  0.1839
 1962WAT     H1 6097   1.819   4.945   1.624 -0.0522  1.2666  1.0154
 1962WAT     H2 6098   1.730   4.828   1.589 -0.3831  2.0699 -0.9800
 1963WAT      O 6099   3.510   3.117   1.171  0.3291 -0.0175 -0.0057
 1963WAT     H1 6100   3.594   3.090   1.206  0.2448  0.5473  0.6610
 1963WAT     H2 6101   3.529   3.197   1.121 -0.0437  1.1368  1.6081
 1964WAT      O 6102   3.414   4.472   3.616 -0.2020  0.4230 -0.2823
 1964WAT     H1 6103   3.348   4.541   3.613 -0.6520  0.0401 -3.3427
 1964WAT     H2 6104   3.365   4.393   3.637 -0.0015  0.6829  1.3010
 1965WAT      O 6105   4.346   1.829   2.057  0.2512 -0.1511  0.8554
 1965WAT     H1 6106   4.313   1.780   2.132 -0.2597 -0.7191  0.2782
 1965WAT     H2 6107   4.284   1.902   2.047 -0.3726 -0.7394  0.2874
 1966WAT      O 6108   0.216   1.066   0.995  0.3025  0.0063  0.5928
 1966WAT     H1 6109   0.206   1.087   1.088  2.1299 -0.4291  0.9395
 1966WAT     H2 6110   0.154   1.122   0.950  0.7068  1.6142  1.9475
 1967WAT      O 6111   4.579   0.780   4.172  0.3325  0.0781  0.0070
 1967WAT     H1 6112   4.530   0.801   4.092 -1.5169 -1.4287  0.6655
 1967WAT     H2 6113   4.523   0.718   4.218  1.0299  1.3807  2.8175
 1968WAT      O 6114   0.584   3.527   3.668  0.4582  0.5521  0.4846
 1968WAT     H1 6115   0.525   3.476   3.724  0.1689  0.3246 -0.0165
 1968WAT     H2 6116   0.606   3.467   3.596  1.4830  0.5554  0.7802
 1969WAT      O 6117   1.267   1.920   2.545  0.4330  0.1586 -0.3193
 1969WAT     H1 6118   1.321   1.928   2.466  0.6028  0.6966 -0.1545
 1969WAT     H2 6119   1.248   1.827   2.552  1.8014 -0.1134 -0.0778
 1970WAT      O 6120   2.376   5.309   1.831 -0.0595 -0.3444  0.1647
 1970WAT     H1 6121   2.320   5.307   1.909  1.2327 -0.2349  1.1322
 1970WAT     H2 6122   2.397   5.402   1.820  0.2440 -0.4236  0.0616
 1971WAT      O 6123   2.675   3.473   3.584  0.0765  0.1087 -0.5017
 1971WAT     H1 6124   2.694   3.383   3.611 -2.6242 -0.1783  0.8034
 1971WAT     H2 6125   2.734   3.527   3.637  0.3762 -0.8207  0.1363
 1972WAT      O 6126   4.520   2.176   5.434 -0.8112  0.4834  0.0577
 1972WAT     H1 6127   4.558   2.256   5.398  1.2583 -0.3150  0.3327
 1972WAT     H2 6128   4.462   2.144   5.365  0.4095  0.8127 -1.1568
 1973WAT      O 6129   0.800   2.831   2.729 -0.2743 -0.1905 -0.4553
 1973WAT     H1 6130   0.891   2.824   2.700 -0.1487  1.7492 -0.6543
 1973WAT     H2 6131   0.800   2.907   2.787 -1.6781 -0.4746 -0.0626
 1974WAT      O 6132   2.365   1.853   2.455 -0.3044 -0.6360 -0.3339
 1974WAT     H1 6133   2.446   1.802   2.459  1.0073  1.1619 -2.3784
 1974WAT     H2 6134   2.308   1.802   2.398 -0.1281 -1.2162 -0.0080
 1975WAT      O 6135   1.263   1.714   3.222  0.5320 -0.4125 -0.5146
 1975WAT     H1 6136   1.293   1.682   3.137  3.0753  1.2529 -0.3429
 1975WAT     H2 6137   1.324   1.784   3.244 -1.0643  0.3272  1.9440
 1976WAT      O 6138   2.806   4.114   4.064 -0.5743  1.0680 -0.2692
 1976WAT     H1 6139   2.814   4.185   4.000  0.3005  1.7613  0.5665
 1976WAT     H2 6140   2.882   4.125   4.121  0.1693 -1.2088 -0.7314
 1977WAT      O 6141   1.633   3.185   2.721  0.3962 -0.2525  0.2229
 1977WAT     H1 6142   1.628   3.100   2.677 -1.2023  0.1078 -0.3569
 1977WAT     H2 6143   1.714   3.224   2.687  0.7066 -1.1777 -0.1514
 1978WAT      O 6144   1.955   2.589   5.201 -0.4526 -0.3631  0.4295
 1978WAT     H1 6145   1.931   2.678   5.172  2.5970  0.7948  1.0661
 1978WAT     H2 6146   1.932   2.587   5.293 -1.8155 -0.7706  0.0940
 1979WAT      O 6147   1.757   1.443   3.621  0.1040  0.5357 -0.3299
 1979WAT     H1 6148   1.786   1.357   3.590 -1.2279 -0.3530  0.7745
 1979WAT     H2 6149   1.800   1.506   3.563  2.0302 -0.8080 -0.4489
 1980WAT      O 6150   0.524   3.221   2.059 -0.2132 -0.0891  0.6184
 1980WAT     H1 6151   0.477   3.155   2.110 -3.0325  0.2768 -1.2937
 1980WAT     H2 6152   0.561   3.172   1.986  1.5003 -0.1749  1.4920
 1981WAT      O 6153   0.552   2.506   1.669  0.0362  0.2714  0.2441
 1981WAT     H1 6154   0.617   2.475   1.732 -0.1206  0.0646  0.3054
 1981WAT     H2 6155   0.555   2.601   1.677  0.9512  0.3144 -0.3703
 1982WAT      O 6156   2.087   4.088   0.436 -0.6034 -0.4498 -0.4148
 1982WAT     H1 6157   2.152   4.139   0.484 -1.2066  0.7776 -0.8531
 1982WAT     H2 6158   2.034   4.047   0.504  0.8249 -1.7863 -0.0434
 1983WAT      O 6159   3.635   0.731   1.186  0.3850  0.5159  0.5391
 1983WAT     H1 6160   3.680   0.757   1.106  0.7619 -1.5184  0.0397
 1983WAT     H2 6161   3.543   0.755   1.170  0.4943  0.3471 -0.3976
 1984WAT      O 6162   4.918   4.000   4.564 -0.1003 -0.0611 -1.2822
 1984WAT     H1 6163   5.007   3.967   4.573  0.2374  1.0112 -0.6121
 1984WAT     H2 6164   4.898   3.989   4.471  1.5114  1.6277 -1.8756
 1985WAT      O 6165   4.816   1.806   3.430  0.1740 -0.4744  0.5432
 1985WAT     H1 6166   4.772   1.798   3.346  1.8638  2.1726 -0.7623
 1985WAT     H2 6167   4.750   1.841   3.489 -0.7426 -1.2714  0.0064
 1986WAT      O 6168   5.006   2.785   2.357  0.5405  0.4238 -0.2044
 1986WAT     H1 6169   4.972   2.826   2.436  1.3428  1.0488 -0.1705
 1986WAT     H2 6170   4.929   2.772   2.301 -0.4049 -2.0111  1.4927
 1987WAT      O 6171   1.921   4.569   2.284  0.5479  0.1738 -0.0153
 1987WAT     H1 6172   1.920   4.507   2.357  1.3326 -1.6984 -1.5058
 1987WAT     H2 6173   1.929   4.654   2.325  2.6313 -0.9006  2.0755
 1988WAT      O 6174   0.475   3.861   4.989  0.7189  0.4871  0.4071
 1988WAT     H1 6175   0.525   3.894   5.063  2.0684 -0.2810 -0.1210
 1988WAT     H2 6176   0.541   3.842   4.922 -0.4440  1.0102 -0.9422
 1989WAT      O 6177   0.923   2.048   0.683  0.1712 -0.6762 -0.4709
 1989WAT     H1 6178   0.872   1.980   0.640 -1.4758  0.0959  0.1965
 1989WAT     H2 6179   0.926   2.022   0.775  0.8338 -0.6070 -0.4633
 1990WAT      O 6180   1.730   1.472   1.558  0.0484  0.2987 -0.6610
 1990WAT     H1 6181   1.698   1.560   1.576 -1.0779  0.1587 -1.8080
 1990WAT     H2 6182   1.669   1.415   1.605  0.6598  0.1074 -0.0776
 1991WAT      O 6183   2.326   4.512   2.306 -0.5101 -0.4463  0.2144
 1991WAT     H1 6184   2.377   4.435   2.331  0.2453  0.5485  1.9637
 1991WAT     H2 6185   2.236   4.491   2.333 -0.2686 -0.6381  0.9034
 1992WAT      O 6186   3.187   2.180   2.591 -0.1853 -0.2728  0.1227
 1992WAT     H1 6187   3.250   2.123   2.635  0.4593 -2.1961 -2.9128
 1992WAT     H2 6188   3.102   2.148   2.619  0.1848 -0.4190  1.1013
 1993WAT      O 6189   4.345   0.573   3.036  1.1103  0.1513 -0.4105
 1993WAT     H1 6190   4.351   0.511   2.964 -0.2252 -1.7472  1.0055
 1993WAT     H2 6191   4.410   0.542   3.099 -0.3574 -0.5850  0.8067
 1994WAT      O 6192   0.586   3.504   2.107 -0.3466 -0.7767  0.0561
 1994WAT     H1 6193   0.532   3.430   2.080 -2.1993  0.4760  0.1115
 1994WAT     H2 6194   0.572   3.511   2.202  0.5394 -0.9007  0.2026
 1995WAT      O 6195   4.160   2.055   1.661 -0.2008 -0.5408  0.2528
 1995WAT     H1 6196   4.177   1.998   1.586  1.7836 -2.0943  1.7857
 1995WAT     H2 6197   4.245   2.094   1.681 -1.0909  1.4090  0.5612
 1996WAT      O 6198   2.445   1.692   5.781 -0.1572  0.0310 -0.1328
 1996WAT     H1 6199   2.448   1.750   5.857  0.2240 -0.0161 -0.1119
 1996WAT     H2 6200   2.392   1.740   5.717 -2.4113 -0.8571  0.9284
 1997WAT      O 6201   1.869   2.749   5.586 -0.0176 -0.5489 -0.9331
 1997WAT     H1 6202   1.905   2.804   5.655 -2.4917  0.8163 -0.6380
 1997WAT     H2 6203   1.935   2.681   5.573  1.3967  0.2763  1.3878
 1998WAT      O 6204   4.011   3.805   3.595 -0.6195  0.2855  0.4519
 1998WAT     H1 6205   4.079   3.857   3.636 -1.4413  2.8803 -1.2274
 1998WAT     H2 6206   4.045   3.786   3.507 -1.1367 -0.3764  0.3853
 1999WAT      O 6207   1.444   2.338   4.656  0.5664  0.2643 -0.4168
 1999WAT     H1 6208   1.508   2.362   4.723 -1.7257 -0.2089  2.1126
 1999WAT     H2 6209   1.385   2.413   4.650 -1.4946 -1.1047  1.0566
 2000WAT      O 6210   3.198   4.961   2.779  0.3779 -0.2483  0.6958
 2000WAT     H1 6211   3.263   4.907   2.735 -0.7791 -1.4779  0.4497
 2000WAT     H2 6212   3.162   5.017   2.710  0.1362 -0.6112  0.5246
 2001WAT      O 6213   1.025   2.344   5.234 -0.4936 -0.5382 -0.4864
 2001WAT     H1 6214   0.935   2.363   5.206 -0.1504  2.2125 -0.0390
 2001WAT     H2 6215   1.052   2.270   5.180 -2.7423 -0.8813 -1.2364
 2002WAT      O 6216   4.020   3.813   2.342  0.1150  0.8439  0.3380
 2002WAT     H1 6217   3.947   3.767   2.385  0.1883 -0.0396 -0.4398
 2002WAT     H2 6218   4.098   3.783   2.389  0.2596 -0.6148 -0.7494
 2003WAT      O 6219   1.016   5.142   3.655 -0.2946 -0.1433  0.4364
 2003WAT     H1 6220   0.989   5.052   3.674  0.2675 -0.6555 -1.0462
 2003WAT     H2 6221   1.096   5.155   3.707 -0.9071 -0.1515  1.3995
 2004WAT      O 6222   1.628   4.125   2.896  0.2590 -0.0465  0.4795
 2004WAT     H1 6223   1.700   4.188   2.900  0.7274 -0.3975 -1.3801
 2004WAT     H2 6224   1.561   4.162   2.954 -0.5545  3.6614 -2.3936
 2005WAT      O 6225   2.878   0.898   2.225  0.3264  0.3223  0.4029
 2005WAT     H1 6226   2.813   0.963   2.198  0.0179 -0.2184 -0.1938
 2005WAT     H2 6227   2.899   0.920   2.315  1.1160  1.9830 -0.1519
 2006WAT      O 6228   1.072   1.552   3.645 -0.3762 -0.1401  0.4128
 2006WAT     H1 6229   1.121   1.505   3.578  1.5399  0.1435  1.5622
 2006WAT     H2 6230   1.037   1.629   3.600 -0.2526 -0.6415 -0.5567
 2007WAT      O 6231   1.634   3.776   0.715 -0.1439 -0.7246 -0.4814
 2007WAT     H1 6232   1.563   3.840   0.727 -1.4507 -2.0982 -0.5913
 2007WAT     H2 6233   1.714   3.829   0.716 -1.2284  1.0674 -1.7764
 2008WAT      O 6234   4.177   3.041   0.142  0.1556  0.3846 -0.2902
 2008WAT     H1 6235   4.219   3.018   0.225 -0.4978  1.0307  0.2379
 2008WAT     H2 6236   4.249   3.047   0.080  0.5588 -1.0580 -0.0085
 2009WAT      O 6237   4.200   4.379   1.638  0.4278  0.0709  0.0480
 2009WAT     H1 6238   4.275   4.321   1.647  0.7339 -0.0342 -2.4586
 2009WAT     H2 6239   4.178   4.404   1.728  2.5151 -1.0578  0.9446
 2010WAT      O 6240   1.359   3.922   5.641  0.1403  0.3008  0.3373
 2010WAT     H1 6241   1.390   4.012   5.647  0.5470  0.1631  0.3133
 2010WAT     H2 6242   1.388   3.893   5.554 -0.8029  0.4473 -0.0432
 2011WAT      O 6243   0.606   3.285   4.132 -0.3045 -0.3441 -0.8235
 2011WAT     H1 6244   0.681   3.321   4.180 -0.8203 -0.6043  0.1967
 2011WAT     H2 6245   0.642   3.210   4.085 -0.1880 -1.3939  0.8490
 2012WAT      O 6246   4.536   0.948   3.566 -0.2054 -0.5640  0.1064
 2012WAT     H1 6247   4.567   1.032   3.598 -1.1764  0.4753 -1.5405
 2012WAT     H2 6248   4.446   0.942   3.599 -0.1380 -0.9568  0.2212
 2013WAT      O 6249   4.709   2.833   0.183 -0.2791  0.1154 -0.4610
 2013WAT     H1 6250   4.640   2.835   0.249 -1.0664 -1.5824 -1.1836
 2013WAT     H2 6251   4.664   2.846   0.100  0.3476 -0.2838 -0.8748
 2014WAT      O 6252   2.457   2.384   1.653  0.5103  0.4656 -0.1742
 2014WAT     H1 6253   2.488   2.356   1.567  1.2687  1.1911 -0.1563
 2014WAT     H2 6254   2.362   2.381   1.647  0.3981  3.4941 -2.1088
 2015WAT      O 6255   3.334   3.512   0.886  0.1046 -0.1927  0.3102
 2015WAT     H1 6256   3.285   3.461   0.822 -0.4178  2.2118 -1.3428
 2015WAT     H2 6257   3.415   3.537   0.840 -0.1151  1.2771  0.6592
 2016WAT      O 6258   3.729   4.165   3.604  0.3140  0.2010  0.2662
 2016WAT     H1 6259   3.707   4.257   3.595 -1.0353 -0.1995 -0.7996
 2016WAT     H2 6260   3.824   4.162   3.597  0.4684  1.5974  1.2999
 2017WAT      O 6261   2.035   3.370   3.343  0.1291 -0.4789  0.1322
 2017WAT     H1 6262   1.951   3.413   3.323  0.0971 -0.9583 -0.7999
 2017WAT     H2 6263   2.090   3.388   3.267  0.4431 -1.2598  0.1670
 2018WAT      O 6264   0.341   4.022   1.615 -0.2081 -0.5252  0.7459
 2018WAT     H1 6265   0.320   3.988   1.528  1.6769 -1.4916  0.6284
 2018WAT     H2 6266   0.376   4.109   1.599  0.7421 -0.9468  0.4395
 2019WAT      O 6267   0.335   2.634   3.749  0.2693 -0.5698  0.1697
 2019WAT     H1 6268   0.371   2.606   3.664 -0.5399  1.9487 -1.1193
 2019WAT     H2 6269   0.371   2.721   3.762  0.4926 -0.9723  2.5595
 2020WAT      O 6270   3.373   4.527   1.210  0.0902  0.1677 -0.0531
 2020WAT     H1 6271   3.405   4.613   1.237  0.2595 -0.6282  2.5982
 2020WAT     H2 6272   3.450   4.480   1.180 -0.2454  1.3980 -3.1740
 2021WAT      O 6273   1.297   0.814   2.048  0.5353  0.0701  0.3873
 2021WAT     H1 6274   1.312   0.895   2.096  2.7908 -0.6033  0.9640
 2021WAT     H2 6275   1.203   0.799   2.053  0.1969  2.1712  1.0201
 2022WAT      O 6276   4.646   4.147   4.580  0.0724  0.7774 -0.7628
 2022WAT     H1 6277   4.695   4.229   4.571 -0.4081  1.2618  0.8496
 2022WAT     H2 6278   4.685   4.105   4.656 -1.9181  1.1095  0.4817
 2023WAT      O 6279   1.960   1.436   1.787 -0.1944 -0.7745 -0.4000
 2023WAT     H1 6280   1.906   1.391   1.851  0.0826 -0.0746  0.3469
 2023WAT     H2 6281   1.900   1.463   1.718 -0.5795 -1.0866 -0.1862
 2024WAT      O 6282   2.904   5.395   3.076 -0.1404 -0.0156  0.0803
 2024WAT     H1 6283   2.976   5.333   3.089  1.9252  2.1240 -0.3122
 2024WAT     H2 6284   2.906   5.450   3.155 -0.8133  0.5757 -0.3007
 2025WAT      O 6285   2.637   1.356   3.267  0.8935 -0.0878  0.6070
 2025WAT     H1 6286   2.643   1.451   3.272  0.3833 -0.0344  0.3014
 2025WAT     H2 6287   2.727   1.325   3.276  1.0959  0.4368  0.4054
 2026WAT      O 6288   3.889   3.843   4.167  0.3026  0.3703 -0.5514
 2026WAT     H1 6289   3.853   3.885   4.245 -0.7340 -0.6004 -0.4716
 2026WAT     H2 6290   3.819   3.786   4.136  1.8040 -1.8148 -0.2478
 2027WAT      O 6291   1.482   4.262   1.125 -0.0344  0.5445  0.0250
 2027WAT     H1 6292   1.482   4.346   1.169 -0.2283  1.1760 -1.1516
 2027WAT     H2 6293   1.440   4.278   1.040  2.4585 -0.0624 -1.4368
 2028WAT      O 6294   3.047   4.068   3.560  0.1671  0.4912 -0.0937
 2028WAT     H1 6295   2.964   4.104   3.528 -0.1312 -0.3192 -0.2581
 2028WAT     H2 6296   3.025   4.035   3.648 -0.3774 -2.0478 -1.0955
 2029WAT      O 6297   0.944   3.997   4.159 -0.0884  0.1405 -0.1519
 2029WAT     H1 6298   0.936   4.085   4.196 -2.6066 -0.5799  1.1911
 2029WAT     H2 6299   0.913   4.006   4.069  3.5083  1.3420 -1.4507
 2030WAT      O 6300   3.360   1.661   0.596  0.1609  0.0118 -0.4011
 2030WAT     H1 6301   3.374   1.567   0.607  0.7090  0.1210 -0.1384
 2030WAT     H2 6302   3.338   1.671   0.503 -1.5462 -0.5639 -0.0903
 2031WAT      O 6303   4.011   5.679   3.503 -0.0937  0.3529  0.5645
 2031WAT     H1 6304   3.973   5.648   3.585 -1.3347  3.0165  1.1220
 2031WAT     H2 6305   3.992   5.610   3.440 -1.8000 -0.4663  1.8976
 2032WAT      O 6306   2.890   2.058   2.925  0.1748  0.2267  0.5209
 2032WAT     H1 6307   2.891   2.112   2.846 -0.3781  0.8857  0.9575
 2032WAT     H2 6308   2.799   2.030   2.934  0.5838 -1.4688 -0.1420
 2033WAT      O 6309   2.704   3.969   3.020 -0.4733  0.2320 -0.3011
 2033WAT     H1 6310   2.742   4.012   2.944  1.8031 -2.0703 -0.5895
 2033WAT     H2 6311   2.778   3.952   3.078 -1.7034 -0.7669  1.0781
 2034WAT      O 6312   4.474   1.021   2.875 -0.2124 -0.4560 -0.2552
 2034WAT     H1 6313   4.488   0.935   2.837  0.1913 -0.6456  0.3205
 2034WAT     H2 6314   4.444   1.075   2.802 -0.7523 -1.1526 -0.5590
 2035WAT      O 6315   0.978   0.946   2.976  0.5149  0.0985  0.2492
 2035WAT     H1 6316   0.920   1.021   2.988  0.2464 -0.2215  1.0374
 2035WAT     H2 6317   0.966   0.919   2.885  0.5663  0.9701 -0.0198
 2036WAT      O 6318   1.952   4.353   1.441 -0.0109  0.1739  0.1163
 2036WAT     H1 6319   1.913   4.410   1.375  0.9592 -0.0022 -0.6394
 2036WAT     H2 6320   1.897   4.275   1.440 -0.9912  0.8407  0.7302
 2037WAT      O 6321   0.570   5.198   2.780  0.0690 -0.8379  0.5314
 2037WAT     H1 6322   0.523   5.146   2.845 -0.1760 -2.1735 -0.6778
 2037WAT     H2 6323   0.506   5.212   2.710  0.7684 -0.6664 -0.0838
 2038WAT      O 6324   2.658   3.363  -0.023  0.3055 -0.1820 -0.0762
 2038WAT     H1 6325   2.632   3.428   0.043 -1.4228 -1.0281  0.1247
 2038WAT     H2 6326   2.664   3.281   0.026  1.3466 -0.4009 -0.5489
 2039WAT      O 6327   4.378   2.590   3.697 -0.4632  0.5361  0.3927
 2039WAT     H1 6328   4.448   2.538   3.658 -1.5164 -1.7251  1.3400
 2039WAT     H2 6329   4.370   2.666   3.639  0.6009 -0.7317 -1.5484
 2040WAT      O 6330   1.748   3.021   4.722 -0.1892  0.3474  0.2030
 2040WAT     H1 6331   1.670   3.041   4.774 -0.7051 -0.5386 -0.1931
 2040WAT     H2 6332   1.735   2.930   4.695  1.7930 -0.3892  1.5256
 2041WAT      O 6333   2.760   0.666   2.128 -0.7592  0.3690 -0.7364
 2041WAT     H1 6334   2.793   0.739   2.180 -2.3415  0.1059  0.7501
 2041WAT     H2 6335   2.678   0.699   2.091 -1.1930 -0.4550 -0.5247
 2042WAT      O 6336   2.646   3.381   2.713 -0.0772 -0.1615  0.7699
 2042WAT     H1 6337   2.669   3.380   2.620 -1.9792 -1.2556  0.2506
 2042WAT     H2 6338   2.719   3.427   2.755 -0.0952  2.1977 -1.4953
 2043WAT      O 6339   2.540   2.142   2.352  0.0163  0.3298 -0.3501
 2043WAT     H1 6340   2.574   2.220   2.396 -2.9878  1.0452  0.9910
 2043WAT     H2 6341   2.517   2.082   2.423  2.2749 -1.9232 -1.3559
 2044WAT      O 6342   3.463   3.702   4.923 -0.1760  0.3130  0.1326
 2044WAT     H1 6343   3.527   3.751   4.975  1.3786  1.8227 -2.9792
 2044WAT     H2 6344   3.508   3.619   4.903  0.4849  0.9681 -1.2233
 2045WAT      O 6345   4.745   3.565   3.806 -0.2857  0.3172  0.3978
 2045WAT     H1 6346   4.805   3.543   3.877  0.2119 -1.1614 -0.4222
 2045WAT     H2 6347   4.658   3.558   3.846  0.0128  0.3444  1.0718
 2046WAT      O 6348   1.771   2.245   4.543  0.2996 -0.1138  0.3215
 2046WAT     H1 6349   1.820   2.265   4.623 -1.3364  0.6595  1.1849
 2046WAT     H2 6350   1.681   2.229   4.573 -0.5707  1.0781 -1.4238
 2047WAT      O 6351   1.810   2.572   4.388  0.5908 -0.3207 -0.2943
 2047WAT     H1 6352   1.776   2.594   4.475 -1.7254 -1.2373 -0.8977
 2047WAT     H2 6353   1.787   2.647   4.334  1.1058 -0.2090 -0.3693
 2048WAT      O 6354   2.564   3.757   2.879  0.2874 -1.1694 -0.4044
 2048WAT     H1 6355   2.632   3.747   2.945  1.1054  0.8464 -0.8835
 2048WAT     H2 6356   2.528   3.844   2.894 -1.6455 -1.8549 -0.7022
 2049WAT      O 6357   0.723   2.613   4.945 -0.1898  0.0583 -0.0352
 2049WAT     H1 6358   0.766   2.692   4.913 -0.6012  0.3314  0.0840
 2049WAT     H2 6359   0.648   2.602   4.886  0.8184 -1.2089 -1.1472
 2050WAT      O 6360   2.748   3.842   3.525  0.5396  0.5455  0.3813
 2050WAT     H1 6361   2.685   3.897   3.478  1.3310  0.3951 -0.9048
 2050WAT     H2 6362   2.827   3.846   3.471  0.9002 -1.1143  0.7600
 2051WAT      O 6363   2.422   2.067   5.515  0.0017 -0.1882  0.4145
 2051WAT     H1 6364   2.399   2.083   5.423  0.0102 -0.5857  0.3392
 2051WAT     H2 6365   2.398   2.148   5.561 -0.7086 -0.2641  0.1862
 2052WAT      O 6366   3.600   3.394   4.297 -0.5578 -0.3129 -0.8481
 2052WAT     H1 6367   3.633   3.363   4.381 -0.3758 -2.0279 -1.5065
 2052WAT     H2 6368   3.678   3.401   4.242 -0.6476  1.0218 -0.8326
 2053WAT      O 6369   0.846   4.507   2.213  0.2347 -0.0004 -0.4540
 2053WAT     H1 6370   0.892   4.481   2.293  0.4888 -0.9115 -0.8792
 2053WAT     H2 6371   0.755   4.480   2.227  0.2579 -0.0686 -0.4356
 2054WAT      O 6372   0.567   1.478   2.249  0.2327 -0.1773  0.6156
 2054WAT     H1 6373   0.608   1.529   2.319 -3.1085  0.1828  2.5810
 2054WAT     H2 6374   0.566   1.537   2.174  0.6043  0.9041  1.4362
 2055WAT      O 6375   3.444   3.168   1.461 -0.6134 -0.1065  0.2951
 2055WAT     H1 6376   3.461   3.169   1.366 -0.5727 -1.3882  0.2764
 2055WAT     H2 6377   3.397   3.250   1.477 -0.7818  0.0460 -0.8622
 2056WAT      O 6378   2.221   3.877   3.222 -0.3217  0.9461 -0.9068
 2056WAT     H1 6379   2.263   3.962   3.210  0.7568  0.5238 -0.3335
 2056WAT     H2 6380   2.260   3.821   3.154  0.9441  0.2560  0.3318
 2057WAT      O 6381   3.509   0.725   3.286 -0.1614 -0.4041  0.0874
 2057WAT     H1 6382   3.467   0.807   3.313 -2.7830 -1.4457 -0.4501
 2057WAT     H2 6383   3.571   0.751   3.218 -1.7374  1.0633 -0.8710
 2058WAT      O 6384   1.601   1.459   3.317 -0.0144  0.0284  0.3485
 2058WAT     H1 6385   1.565   1.416   3.395 -3.1782  0.3759 -0.7571
 2058WAT     H2 6386   1.678   1.407   3.293  0.3161 -0.7959  2.9582
 2059WAT      O 6387   0.072   1.593   4.927  0.2275  0.0663  0.3493
 2059WAT     H1 6388   0.123   1.553   4.998  0.2733  1.2936  1.0376
 2059WAT     H2 6389  -0.009   1.542   4.924  0.1267  0.1501  1.4449
 2060WAT      O 6390   0.111   3.037   3.302 -0.1716 -0.1452 -0.0159
 2060WAT     H1 6391   0.095   3.022   3.209 -0.2497 -1.2307  0.1627
 2060WAT     H2 6392   0.041   2.989   3.347 -0.5311  0.9154  0.5976
 2061WAT      O 6393   4.379   0.320   2.003  0.1218  0.1021 -0.1036
 2061WAT     H1 6394   4.337   0.259   1.942 -0.6590  2.5080 -2.1569
 2061WAT     H2 6395   4.454   0.355   1.955  0.3634  0.9903  0.8843
 2062WAT      O 6396   1.994   3.291   1.277 -0.2277  0.1677 -0.4780
 2062WAT     H1 6397   2.006   3.197   1.286  0.3062  0.2813  0.0658
 2062WAT     H2 6398   2.057   3.317   1.209 -0.0128  0.2005 -0.2707
 2063WAT      O 6399   1.072   4.379   5.166 -0.7090  0.7681 -0.7430
 2063WAT     H1 6400   1.154   4.429   5.165  0.6504 -1.2697  0.7050
 2063WAT     H2 6401   1.070   4.334   5.082  0.1932  0.0871 -0.4187
 2064WAT      O 6402   4.618   2.029   4.330 -0.5140 -0.6834 -0.3978
 2064WAT     H1 6403   4.673   2.024   4.409  0.9513 -0.9651 -1.3908
 2064WAT     H2 6404   4.550   2.092   4.353  0.7625  0.4009  0.5909
 2065WAT      O 6405   4.278   3.144   4.801  0.7300 -0.4059 -0.2789
 2065WAT     H1 6406   4.224   3.200   4.858  0.1437 -0.6633 -0.5749
 2065WAT     H2 6407   4.261   3.177   4.713  0.5619 -0.9024 -0.4348
 2066WAT      O 6408   2.856   3.096   1.322  0.0121  0.1332  0.0941
 2066WAT     H1 6409   2.775   3.136   1.290 -0.9611  0.4658  2.7643
 2066WAT     H2 6410   2.913   3.171   1.339 -0.0220  0.0536  0.5443
 2067WAT      O 6411   1.956   3.124   4.320  0.2657  0.0869 -0.3020
 2067WAT     H1 6412   2.046   3.148   4.297  1.3193 -1.6322  1.6703
 2067WAT     H2 6413   1.927   3.071   4.246  1.8437 -1.4260  0.0913
 2068WAT      O 6414   3.134   2.455   3.350 -0.3408  0.1446  0.2445
 2068WAT     H1 6415   3.203   2.494   3.297  0.0766  1.0540  1.4307
 2068WAT     H2 6416   3.082   2.405   3.287  0.1410  1.1718 -1.0227
 2069WAT      O 6417   4.121   2.905   2.937 -0.2046  0.0653  0.3932
 2069WAT     H1 6418   4.098   2.837   2.873  1.5583  0.2956 -0.5367
 2069WAT     H2 6419   4.215   2.896   2.950 -0.2202  1.2261  1.5908
 2070WAT      O 6420   4.069   3.210   3.478  0.5675 -0.1438 -0.1161
 2070WAT     H1 6421   4.111   3.292   3.503 -2.2032  1.0429  0.9846
 2070WAT     H2 6422   3.997   3.236   3.421  2.1153 -2.2327 -3.3443
 2071WAT      O 6423   4.459   1.766   4.096  0.2774 -0.8120  0.2230
 2071WAT     H1 6424   4.403   1.792   4.169 -0.7571 -1.1951 -0.4186
 2071WAT     H2 6425   4.532   1.827   4.099  0.0714 -0.6072  1.3697
 2072WAT      O 6426   1.224   4.846   2.033  0.0428 -0.1223 -0.0003
 2072WAT     H1 6427   1.302   4.900   2.048 -0.3872  0.7549 -0.8313
 2072WAT     H2 6428   1.152   4.900   2.065 -0.3932 -0.1731 -0.8752
 2073WAT      O 6429   1.310   2.335   3.947 -0.2304  0.2105  0.1321
 2073WAT     H1 6430   1.280   2.291   4.026  1.0254 -0.8877  0.0288
 2073WAT     H2 6431   1.231   2.377   3.912 -1.4103 -1.5729  0.5023
 2074WAT      O 6432   3.827   0.153   1.726 -0.5521 -0.4562 -0.0691
 2074WAT     H1 6433   3.848   0.093   1.654 -1.5456  1.6981 -2.2951
 2074WAT     H2 6434   3.745   0.119   1.763 -2.1867  0.4665 -2.5938
 2075WAT      O 6435   1.464   2.968   0.023  0.0669  0.0223 -0.0635
 2075WAT     H1 6436   1.485   2.989   0.114  1.5031  0.6778 -0.5194
 2075WAT     H2 6437   1.519   2.893   0.002 -0.7614 -0.5660 -0.2125
 2076WAT      O 6438   0.868   3.731   3.949  0.1246  0.0765  0.0678
 2076WAT     H1 6439   0.776   3.757   3.950  0.0709 -0.1089  0.5505
 2076WAT     H2 6440   0.873   3.658   4.012  0.3787 -0.6887 -0.8239
 2077WAT      O 6441   1.102   3.997   5.389  0.1402  0.5433 -0.0047
 2077WAT     H1 6442   1.090   3.918   5.442  1.3654  0.3397  0.0087
 2077WAT     H2 6443   1.025   4.050   5.406 -0.3222 -0.3062  0.6038
 2078WAT      O 6444   2.707   0.729   2.778  0.2522 -0.0670 -0.3514
 2078WAT     H1 6445   2.678   0.742   2.688 -1.9043  0.5531  0.3676
 2078WAT     H2 6446   2.720   0.634   2.785 -1.7792 -0.4142 -0.7355
 2079WAT      O 6447   3.596   3.008   5.507 -0.2004  0.1575  0.3855
 2079WAT     H1 6448   3.626   2.954   5.580 -0.1602 -0.1858  0.1181
 2079WAT     H2 6449   3.575   2.945   5.438 -0.2181  0.4811  0.0939
 2080WAT      O 6450   4.818   1.514   2.376  0.1661 -0.2515  0.0564
 2080WAT     H1 6451   4.887   1.474   2.428  0.6106 -0.5409 -0.7436
 2080WAT     H2 6452   4.860   1.590   2.334  0.2186 -0.8573 -1.0215
 2081WAT      O 6453   0.067   4.327   2.138 -0.0114 -0.3447  0.3912
 2081WAT     H1 6454   0.126   4.397   2.112 -0.4600 -0.8181 -2.1087
 2081WAT     H2 6455   0.103   4.295   2.221  2.1049  0.6597 -0.0826
 2082WAT      O 6456   0.600   1.749   0.749 -0.7116 -0.1108 -0.9198
 2082WAT     H1 6457   0.666   1.683   0.728  0.0326 -0.0362  0.9966
 2082WAT     H2 6458   0.543   1.706   0.812  0.7431  1.5135  1.6475
 2083WAT      O 6459   1.802   2.774   3.826  1.0359 -0.7738 -0.3434
 2083WAT     H1 6460   1.858   2.729   3.764  1.9217  0.1862 -0.2756
 2083WAT     H2 6461   1.851   2.853   3.850  0.4481 -0.8145  1.1041
 2084WAT      O 6462   0.776   4.062   0.764 -0.5605 -0.0511 -0.8207
 2084WAT     H1 6463   0.815   3.975   0.756  0.5972  0.4728 -1.1152
 2084WAT     H2 6464   0.710   4.065   0.694 -0.4940 -0.6301 -0.9149
 2085WAT      O 6465   1.612   2.485   3.156 -0.8156  0.1041 -0.2229
 2085WAT     H1 6466   1.629   2.486   3.250  0.2689  2.0884 -0.3744
 2085WAT     H2 6467   1.660   2.410   3.122  1.2466  1.0608  0.4527
 2086WAT      O 6468   0.467   2.039   0.407  0.0646  0.1459 -0.0582
 2086WAT     H1 6469   0.458   1.945   0.393 -1.0258  0.2596 -0.2061
 2086WAT     H2 6470   0.465   2.049   0.502 -1.4619  0.1493 -0.0720
 2087WAT      O 6471   0.677   0.748   4.140 -0.1093 -0.1008 -0.5755
 2087WAT     H1 6472   0.759   0.711   4.173 -2.5019 -2.0981  3.9724
 2087WAT     H2 6473   0.648   0.687   4.073 -0.3136 -2.4657  1.5316
 2088WAT      O 6474   3.203   3.718   0.987  0.1736 -0.0600  0.2145
 2088WAT     H1 6475   3.252   3.643   0.952 -0.2030  0.1353 -0.7587
 2088WAT     H2 6476   3.200   3.780   0.914 -2.2465 -0.4074 -0.0427
 2089WAT      O 6477   3.034   3.249   1.536  0.0135 -0.1615 -0.0370
 2089WAT     H1 6478   3.082   3.208   1.464  1.0690 -0.4444  0.8108
 2089WAT     H2 6479   3.101   3.270   1.601 -0.8709  0.4580  0.6981
 2090WAT      O 6480   3.111   2.314   1.430  0.2116 -0.8295  0.4082
 2090WAT     H1 6481   3.027   2.274   1.407  0.5684 -1.9936  1.0339
 2090WAT     H2 6482   3.177   2.252   1.400  0.8229 -0.3209  0.6695
 2091WAT      O 6483   0.410   2.777   2.341  0.2756 -0.2571  0.3360
 2091WAT     H1 6484   0.360   2.820   2.410  0.4910 -0.7225  0.7872
 2091WAT     H2 6485   0.352   2.778   2.265 -0.6127 -1.2290  0.9817
 2092WAT      O 6486   0.450   1.454   1.413  0.2017 -0.1499 -0.2161
 2092WAT     H1 6487   0.396   1.388   1.369  2.1786 -1.5745 -0.6951
 2092WAT     H2 6488   0.508   1.487   1.344  0.9983  0.1534  0.5786
 2093WAT      O 6489   1.860   3.204   2.382  0.2152  0.4190  0.3539
 2093WAT     H1 6490   1.858   3.256   2.302  1.4924  0.3077  0.2338
 2093WAT     H2 6491   1.847   3.114   2.353 -0.1260  0.4658  0.3601
 2094WAT      O 6492   4.840   2.574   4.107  0.4102 -0.5000 -0.3594
 2094WAT     H1 6493   4.816   2.652   4.156  0.2964 -0.7509 -0.0152
 2094WAT     H2 6494   4.805   2.589   4.019 -0.3401 -0.5259 -0.0723
 2095WAT      O 6495   2.871   2.165   2.453  0.6191  0.3585 -0.0634
 2095WAT     H1 6496   2.909   2.251   2.433 -1.1772  1.0476 -0.7426
 2095WAT     H2 6497   2.827   2.178   2.537  2.4442 -0.6438  1.1012
 2096WAT      O 6498   4.285   1.064   0.691  1.0655 -0.0554  0.5044
 2096WAT     H1 6499   4.265   1.158   0.690  1.9089  0.1313  0.4758
 2096WAT     H2 6500   4.215   1.024   0.639  0.6920  0.5571  0.5319
 2097WAT      O 6501   1.758   0.696   1.412  0.8197 -0.1278 -0.3668
 2097WAT     H1 6502   1.811   0.627   1.453  1.9935  1.2854  0.6343
 2097WAT     H2 6503   1.691   0.716   1.477  1.7005  1.0054  0.2339
 2098WAT      O 6504   2.597   2.924   2.525 -0.2271 -0.6229 -0.2198
 2098WAT     H1 6505   2.534   2.993   2.504 -2.2633 -2.7134 -1.6074
 2098WAT     H2 6506   2.587   2.909   2.619  2.3499  2.7341  0.7880
 2099WAT      O 6507   3.237   3.612   1.236 -0.3738 -0.2342 -0.1035
 2099WAT     H1 6508   3.223   3.674   1.164  0.5610 -0.0575 -0.1490
 2099WAT     H2 6509   3.194   3.653   1.311 -0.3114  0.1700 -0.2851
 2100WAT      O 6510   4.108   2.838   1.180 -0.7191 -0.3499 -0.2342
 2100WAT     H1 6511   4.043   2.817   1.248 -0.1299  0.9885  0.7864
 2100WAT     H2 6512   4.061   2.894   1.118 -0.6069  0.4784  0.4137
 2101WAT      O 6513   1.154   1.089   2.025  0.3595  0.2699  0.8125
 2101WAT     H1 6514   1.117   1.039   2.098  1.0481  1.6881  2.1982
 2101WAT     H2 6515   1.161   1.178   2.059 -0.6617  1.3191 -1.4960
 2102WAT      O 6516   4.149   1.869   0.788  0.1899 -0.1842 -0.3786
 2102WAT     H1 6517   4.138   1.927   0.713 -1.5360  0.1654  0.1057
 2102WAT     H2 6518   4.199   1.920   0.851  0.8759 -0.1593 -0.9300
 2103WAT      O 6519   4.193   2.355   4.932  0.1600  0.0806 -0.4944
 2103WAT     H1 6520   4.126   2.290   4.955 -0.9156  0.4906 -2.2452
 2103WAT     H2 6521   4.143   2.431   4.903  1.3034  2.5801  3.3715
 2104WAT      O 6522   1.654   4.317   5.101  0.0945  0.1083 -0.1381
 2104WAT     H1 6523   1.607   4.233   5.097 -0.3234  0.1769  2.0711
 2104WAT     H2 6524   1.585   4.383   5.111  0.4150  0.7640 -1.9394
 2105WAT      O 6525   3.331   4.396   1.448  0.0789  0.4586 -0.1322
 2105WAT     H1 6526   3.259   4.448   1.484  0.6061  1.5040 -0.5362
 2105WAT     H2 6527   3.346   4.434   1.361 -0.4430 -1.2945 -1.0299
 2106WAT      O 6528   2.072   2.089   1.127 -0.3127 -0.2046  0.0303
 2106WAT     H1 6529   1.982   2.118   1.143  0.0878  0.2155  1.6545
 2106WAT     H2 6530   2.071   1.995   1.146 -0.0035  0.1563  1.9813
 2107WAT      O 6531   4.430   2.092   4.573  0.2523 -0.5168  0.2376
 2107WAT     H1 6532   4.395   2.018   4.621  0.9980 -0.4876  0.8427
 2107WAT     H2 6533   4.442   2.160   4.639 -1.8711  0.7164 -0.5396
 2108WAT      O 6534   1.888   0.788   1.823  0.0112 -0.0789 -0.5005
 2108WAT     H1 6535   1.944   0.771   1.898  0.3658  1.1192 -0.4757
 2108WAT     H2 6536   1.891   0.707   1.772  0.0764 -0.7672  0.5636
 2109WAT      O 6537   3.325   2.159   0.227 -0.0554  0.4245 -0.3137
 2109WAT     H1 6538   3.271   2.236   0.243  0.9661  1.0578  0.1819
 2109WAT     H2 6539   3.412   2.182   0.261  0.4579 -0.6772 -0.8017
 2110WAT      O 6540   2.050   2.720   1.709  0.2383  0.0195 -0.2140
 2110WAT     H1 6541   2.037   2.748   1.619  1.8456 -0.4776 -0.6311
 2110WAT     H2 6542   2.139   2.749   1.730 -0.0497 -0.0287  1.1585
 2111WAT      O 6543   4.510   1.668   1.621  0.2052  0.2869  0.2703
 2111WAT     H1 6544   4.546   1.736   1.565  0.0146 -0.6939 -1.1038
 2111WAT     H2 6545   4.538   1.692   1.710  2.3038  0.7744 -0.4587
 2112WAT      O 6546   4.664   2.104   1.689 -0.6805 -0.1854  0.1210
 2112WAT     H1 6547   4.675   2.185   1.739  2.4316  0.8095 -1.9428
 2112WAT     H2 6548   4.741   2.052   1.711 -1.0912 -1.2704 -0.9116
 2113WAT      O 6549   0.580   1.133   3.800  0.2994 -0.4036 -0.1769
 2113WAT     H1 6550   0.540   1.052   3.768  0.5860 -0.1745 -1.1415
 2113WAT     H2 6551   0.507   1.182   3.838 -0.1244 -0.5409 -0.7919
 2114WAT      O 6552   2.202   3.166   2.734  0.0621 -0.1801  0.3870
 2114WAT     H1 6553   2.218   3.200   2.646  0.3346 -0.5567  0.2874
 2114WAT     H2 6554   2.289   3.143   2.766  0.2388  1.8604  1.5505
 2115WAT      O 6555   2.669   4.753   2.505 -0.1353  0.2386 -0.4471
 2115WAT     H1 6556   2.694   4.669   2.467 -1.9235 -0.1586 -0.8535
 2115WAT     H2 6557   2.587   4.735   2.551 -0.0879  1.5767  0.2036
 2116WAT      O 6558   1.402   3.133   0.827 -0.0723 -0.0186  0.0375
 2116WAT     H1 6559   1.477   3.132   0.887 -0.4752 -1.8352  0.6010
 2116WAT     H2 6560   1.423   3.200   0.762  1.7949 -0.1121  0.4917
 2117WAT      O 6561   4.274   3.182   3.180 -0.0166  0.2568 -0.7569
 2117WAT     H1 6562   4.224   3.261   3.156  0.9168  0.5765 -1.7135
 2117WAT     H2 6563   4.234   3.112   3.127  0.3671  0.4646 -1.3356
 2118WAT      O 6564   2.596   2.017   2.127 -0.8688 -0.6497  0.4812
 2118WAT     H1 6565   2.595   1.921   2.137 -1.8924 -0.6830  0.2588
 2118WAT     H2 6566   2.580   2.050   2.216  0.1546 -0.6551  0.6793
 2119WAT      O 6567   4.176   3.404   4.153 -0.1980  0.1467 -0.2600
 2119WAT     H1 6568   4.271   3.410   4.139 -0.3136  1.9914 -0.5248
 2119WAT     H2 6569   4.142   3.489   4.123 -2.2249 -1.2549 -2.3369
 2120WAT      O 6570   2.138   2.721   3.168 -0.2867  0.1169 -0.4588
 2120WAT     H1 6571   2.088   2.725   3.250 -1.2026  1.6015 -1.0486
 2120WAT     H2 6572   2.085   2.770   3.106  1.9067  1.8133 -1.1205
 2121WAT      O 6573   3.166   2.623   0.527 -1.3539  0.8418 -0.4000
 2121WAT     H1 6574   3.217   2.704   0.535 -0.0485  0.0710 -0.6508
 2121WAT     H2 6575   3.104   2.627   0.599  0.1536  1.0674  0.9451
 2122WAT      O 6576   3.006   3.181   0.138 -0.0687  0.0246 -0.6423
 2122WAT     H1 6577   2.972   3.176   0.227  1.7706 -0.2646  0.0806
 2122WAT     H2 6578   3.016   3.089   0.111 -0.8872  0.1072 -1.2873
 2123WAT      O 6579   2.181   2.399   1.633  0.4823 -0.2771 -0.5107
 2123WAT     H1 6580   2.114   2.350   1.587 -0.7070  0.3181  0.5344
 2123WAT     H2 6581   2.140   2.426   1.715  1.3032  1.8934 -0.7436
 2124WAT      O 6582   2.622   1.603   4.945  0.3573  0.4991 -0.3431
 2124WAT     H1 6583   2.546   1.615   5.003  1.3799  0.7607  0.9868
 2124WAT     H2 6584   2.697   1.596   5.005  1.1949 -1.5110 -1.5238
 2125WAT      O 6585   0.250   0.039   1.534 -0.1225  0.0489 -0.5330
 2125WAT     H1 6586   0.277   0.113   1.480 -0.2031  0.5573  0.1077
 2125WAT     H2 6587   0.289   0.057   1.620 -0.1283 -0.6629 -0.3743
 2126WAT      O 6588   2.153   1.446   5.393 -0.0176 -0.0364  0.2055
 2126WAT     H1 6589   2.117   1.444   5.304  0.5455  0.3227 -0.0394
 2126WAT     H2 6590   2.216   1.518   5.391  0.4343 -0.4116  0.7272
 2127WAT      O 6591   2.442   2.801   4.674  0.3493  0.2584 -0.5585
 2127WAT     H1 6592   2.355   2.780   4.706 -0.4949  0.8108 -2.3482
 2127WAT     H2 6593   2.499   2.734   4.712 -0.9576 -0.5023  0.0976
 2128WAT      O 6594   0.955   0.946   1.178 -0.3200  0.2800 -0.5160
 2128WAT     H1 6595   0.893   0.902   1.236  0.5011  0.8159  0.8268
 2128WAT     H2 6596   1.034   0.892   1.182 -0.6799 -0.4506 -2.2891
 2129WAT      O 6597   3.309   0.304   1.417  0.2402  0.0605 -0.5581
 2129WAT     H1 6598   3.398   0.320   1.386  0.3322  2.1129  0.6306
 2129WAT     H2 6599   3.254   0.313   1.339  0.8870  0.8166 -0.9344
 2130WAT      O 6600   3.582   1.823   5.743  0.2380 -0.0729  0.2486
 2130WAT     H1 6601   3.658   1.805   5.799  0.3278  0.0925  0.1818
 2130WAT     H2 6602   3.525   1.878   5.797  0.0868 -0.3346  0.3588
 2131WAT      O 6603   2.411   0.641   2.565 -0.2851 -0.6072 -0.0589
 2131WAT     H1 6604   2.361   0.700   2.622 -0.9757  0.0169 -1.2715
 2131WAT     H2 6605   2.400   0.555   2.604 -1.3487 -0.3010  0.3508
 2132WAT      O 6606   2.574   3.345   5.533  0.1457  0.4060 -0.0912
 2132WAT     H1 6607   2.650   3.301   5.496 -1.5792 -1.8114 -1.2454
 2132WAT     H2 6608   2.596   3.355   5.626  1.6052 -0.7473 -0.2692
 2133WAT      O 6609   3.307   2.070   5.418 -0.4133 -0.2170 -0.0376
 2133WAT     H1 6610   3.307   2.109   5.506 -1.8730 -0.5503  0.1226
 2133WAT     H2 6611   3.365   1.994   5.427  2.5065  1.7709 -0.3587
 2134WAT      O 6612   2.335   3.680   0.223 -0.0198  0.5370  0.0974
 2134WAT     H1 6613   2.262   3.734   0.252  0.1637  0.5651  0.5054
 2134WAT     H2 6614   2.413   3.731   0.244  0.2567 -0.5546  1.9945
 2135WAT      O 6615   3.297   2.151   5.713  0.0162  0.0632  0.5805
 2135WAT     H1 6616   3.259   2.075   5.756 -0.4564  0.2253  0.4516
 2135WAT     H2 6617   3.241   2.224   5.740 -1.0841 -0.0197 -1.3413
 2136WAT      O 6618   1.657   3.150   0.952 -0.2571  0.5247  0.3591
 2136WAT     H1 6619   1.698   3.074   0.995 -1.2802 -0.3874 -0.2351
 2136WAT     H2 6620   1.720   3.177   0.886  0.1722  0.2712  0.6575
 2137WAT      O 6621   2.565   1.446   1.348  0.4620 -0.3496  0.1592
 2137WAT     H1 6622   2.475   1.441   1.317 -0.4465 -0.8049  2.6132
 2137WAT     H2 6623   2.593   1.535   1.327 -0.8236  0.0349 -0.0034
 2138WAT      O 6624   1.372   0.361   2.624  0.7357 -0.4054  0.5043
 2138WAT     H1 6625   1.380   0.267   2.638  1.3698 -0.1545  1.9991
 2138WAT     H2 6626   1.323   0.369   2.542 -1.2140 -2.0318  1.4342
 2139WAT      O 6627   4.783   1.263   1.366  0.6395 -0.3106  0.1239
 2139WAT     H1 6628   4.870   1.301   1.350  0.1582  0.2227 -1.3490
 2139WAT     H2 6629   4.725   1.339   1.372 -0.2664 -0.7405 -2.4192
 2140WAT      O 6630   4.453   1.568   0.752  0.1659 -0.1352 -0.1521
 2140WAT     H1 6631   4.364   1.593   0.774  0.8143 -1.1051  4.4490
 2140WAT     H2 6632   4.488   1.644   0.706 -2.8063  0.4149 -1.7410
 2141WAT      O 6633   1.544   0.794   1.534  0.0903  0.0546  0.5039
 2141WAT     H1 6634   1.500   0.827   1.612  0.0472  1.5773 -0.1413
 2141WAT     H2 6635   1.588   0.870   1.497 -1.2308 -0.2367 -1.8632
 2142WAT      O 6636   2.158   0.128   2.095  0.4083  0.1186 -0.4711
 2142WAT     H1 6637   2.149   0.127   2.191  1.9156 -1.3674 -0.2871
 2142WAT     H2 6638   2.085   0.075   2.064 -0.5138  1.2002 -0.2311
 2143WAT      O 6639   2.541   0.520   1.288 -0.1974 -0.0222 -0.3246
 2143WAT     H1 6640   2.590   0.592   1.249 -0.7334 -0.9179 -2.8473
 2143WAT     H2 6641   2.462   0.561   1.323  0.9324  1.0037  1.1718
 2144WAT      O 6642   1.214   1.164   1.231 -0.3759  0.3477 -0.2187
 2144WAT     H1 6643   1.194   1.089   1.288  0.5419 -2.0807 -2.8217
 2144WAT     H2 6644   1.303   1.188   1.253 -0.7591  0.8475  0.8071
 2145WAT      O 6645   1.071   1.432   3.120 -0.1551 -0.6275 -0.0522
 2145WAT     H1 6646   1.029   1.421   3.205 -1.0643  0.1134 -0.3893
 2145WAT     H2 6647   1.022   1.502   3.078  1.9240  0.8422 -0.1724
 2146WAT      O 6648   0.782   2.897   2.185 -0.1108  0.1654  0.3905
 2146WAT     H1 6649   0.838   2.936   2.117  0.2406 -1.2943 -0.1883
 2146WAT     H2 6650   0.794   2.954   2.261 -0.2955  1.6810 -0.6696
 2147WAT      O 6651   2.506   2.394   2.487  0.8109  0.4313 -0.5232
 2147WAT     H1 6652   2.498   2.449   2.565  1.3086 -1.1189  0.6753
 2147WAT     H2 6653   2.443   2.431   2.425 -1.1162  0.4880  1.3546
 2148WAT      O 6654   0.004   0.941   4.035  0.2978 -0.4714  0.0088
 2148WAT     H1 6655   0.085   0.931   4.084  0.3148 -0.0838  0.0634
 2148WAT     H2 6656   0.017   1.020   3.983 -0.5044  0.2989  0.9347
 2149WAT      O 6657   0.140   3.176   3.675 -0.5619  0.0095 -0.0764
 2149WAT     H1 6658   0.074   3.225   3.626 -0.1104  0.3640 -0.3397
 2149WAT     H2 6659   0.169   3.107   3.614 -1.0792 -0.4888  0.2348
 2150WAT      O 6660   1.038   2.308   4.559  0.2830 -0.0936 -0.4887
 2150WAT     H1 6661   1.059   2.351   4.476 -1.8535  1.0743 -0.4860
 2150WAT     H2 6662   0.971   2.363   4.598  0.2990 -1.3505  1.4143
 2151WAT      O 6663   2.963   2.909   0.125 -0.5410  0.0385 -0.6592
 2151WAT     H1 6664   2.998   2.849   0.059 -2.1498 -0.0169 -1.5220
 2151WAT     H2 6665   2.949   2.853   0.202 -0.8541 -0.4426 -1.0534
 2152WAT      O 6666   2.278   2.679   1.109 -0.5554 -0.0031 -0.6963
 2152WAT     H1 6667   2.245   2.645   1.192 -3.0737  0.6847 -1.3468
 2152WAT     H2 6668   2.346   2.742   1.134 -0.4026 -0.7102  0.7647
 2153WAT      O 6669   3.250   2.790   5.638  0.1480  0.1052  0.2006
 2153WAT     H1 6670   3.324   2.729   5.639 -0.9838 -1.3334  0.7933
 2153WAT     H2 6671   3.261   2.841   5.558  2.1585  0.4457  0.6461
 2154WAT      O 6672   4.899   1.963   1.714  0.0635  0.3743 -0.2713
 2154WAT     H1 6673   4.959   1.906   1.762  0.7594  1.6826  0.4709
 2154WAT     H2 6674   4.948   2.044   1.702 -1.3527  1.2671 -0.1876
 2155WAT      O 6675   2.087   1.280   0.732 -0.1413 -0.3276 -0.2063
 2155WAT     H1 6676   1.999   1.241   0.730 -0.1507 -0.2891 -1.1899
 2155WAT     H2 6677   2.085   1.339   0.807 -0.3668 -1.6506  0.8729
 2156WAT      O 6678   1.023   0.248   3.688  0.4795 -0.3167  0.3949
 2156WAT     H1 6679   0.954   0.207   3.741 -1.5459 -0.8899 -2.4013
 2156WAT     H2 6680   1.098   0.189   3.695 -0.0153 -0.7984  1.9137
 2157WAT      O 6681   1.448   1.747   5.329  0.2647 -0.1841 -0.8246
 2157WAT     H1 6682   1.421   1.742   5.421 -0.0331 -0.5657 -0.9244
 2157WAT     H2 6683   1.426   1.836   5.302 -1.7361 -0.6966 -1.1247
 2158WAT      O 6684   4.611   3.860   5.003 -0.7523  0.4315  0.2523
 2158WAT     H1 6685   4.572   3.895   4.923  0.8659  0.5234 -0.5367
 2158WAT     H2 6686   4.705   3.856   4.984 -0.4820 -0.8029  1.6747
 2159WAT      O 6687   2.968   3.391   5.806  0.4643  0.1960  0.3017
 2159WAT     H1 6688   2.966   3.315   5.864 -0.1774  0.7210  0.9799
 2159WAT     H2 6689   2.879   3.399   5.772  0.9639 -0.4585 -1.2508
 2160WAT      O 6690   1.004   5.367   2.027  0.3921 -0.1306 -0.0674
 2160WAT     H1 6691   1.042   5.406   2.105  0.0573 -0.3835  0.2258
 2160WAT     H2 6692   0.994   5.274   2.049  1.2764 -0.4073 -0.7925
 2161WAT      O 6693   2.110   5.055   1.840 -0.1044 -0.4675  0.2626
 2161WAT     H1 6694   2.200   5.047   1.810 -0.1540 -1.2741  0.3007
 2161WAT     H2 6695   2.097   4.979   1.896 -0.9876 -0.6827 -0.2122
 2162WAT      O 6696   3.674   2.137   3.162 -0.1055  0.1520 -0.3448
 2162WAT     H1 6697   3.764   2.131   3.131  1.7144 -0.4163  4.2127
 2162WAT     H2 6698   3.637   2.051   3.144  1.5322 -0.8492  0.7849
 2163WAT      O 6699   1.891   3.609   0.515  0.0495 -0.5340  0.2940
 2163WAT     H1 6700   1.943   3.555   0.456 -0.4317 -0.5061 -0.1657
 2163WAT     H2 6701   1.814   3.634   0.463 -0.1451 -0.1090  0.7744
 2164WAT      O 6702   4.817   0.484   2.678  0.7742 -0.4112  0.3745
 2164WAT     H1 6703   4.857   0.433   2.608  1.3080 -0.0012  0.3795
 2164WAT     H2 6704   4.854   0.572   2.668 -0.9885  0.2898 -0.3413
 2165WAT      O 6705   1.948   2.984   1.796  0.1985 -0.5730  0.2333
 2165WAT     H1 6706   1.990   3.012   1.714  1.4989 -2.1336  0.3096
 2165WAT     H2 6707   1.965   2.890   1.800  0.2298 -0.5250  2.3355
 2166WAT      O 6708   4.137   2.991   4.027 -0.6076  0.8110  0.4032
 2166WAT     H1 6709   4.052   2.956   4.053 -1.1947  0.9799 -1.1871
 2166WAT     H2 6710   4.168   2.932   3.959  1.5918 -0.4922  2.3468
 2167WAT      O 6711   1.859   2.412   4.064  0.8033  0.3625  0.5169
 2167WAT     H1 6712   1.950   2.421   4.093  0.9058  0.4422  0.1672
 2167WAT     H2 6713   1.813   2.382   4.142  1.5061 -1.8187  0.1636
 2168WAT      O 6714   2.805   4.182   3.375 -0.1983 -0.5800 -0.2791
 2168WAT     H1 6715   2.725   4.138   3.402 -0.3561 -1.7417 -2.3774
 2168WAT     H2 6716   2.787   4.275   3.386 -0.2022 -0.8777  3.3970
 2169WAT      O 6717   3.012   2.768   5.723 -0.1939 -0.1182  0.7053
 2169WAT     H1 6718   3.094   2.794   5.682 -0.2855  2.0608  1.7735
 2169WAT     H2 6719   2.990   2.685   5.681  1.0777  0.6286 -1.6470
 2170WAT      O 6720   1.286   1.980   5.561 -0.3123  0.5773 -0.4492
 2170WAT     H1 6721   1.221   2.033   5.515 -0.4332  0.3315 -0.5691
 2170WAT     H2 6722   1.234   1.911   5.603 -0.0410 -0.3234 -1.5239
 2171WAT      O 6723   3.398   4.638   4.211 -0.0743 -0.0501 -0.1819
 2171WAT     H1 6724   3.377   4.633   4.117  0.1578  0.1390 -0.2474
 2171WAT     H2 6725   3.317   4.670   4.251  0.7467  3.1307 -0.7513
 2172WAT      O 6726   0.181   2.564   1.644  0.0998 -0.0235 -0.5122
 2172WAT     H1 6727   0.243   2.492   1.649 -0.0579 -0.0943  0.8129
 2172WAT     H2 6728   0.231   2.637   1.606  1.1176  0.0311  0.8743
 2173WAT      O 6729   3.066   2.453   1.747 -0.1114  0.6673 -0.7712
 2173WAT     H1 6730   3.141   2.395   1.743  0.6522  1.6062 -0.5145
 2173WAT     H2 6731   2.999   2.403   1.794  1.4160  0.9198  1.9133
 2174WAT      O 6732   1.281   2.458   0.376 -0.0038  0.4678  0.7034
 2174WAT     H1 6733   1.300   2.451   0.282 -0.1143 -0.8666  0.7565
 2174WAT     H2 6734   1.359   2.420   0.418 -0.9922 -1.2961  1.0466
 2175WAT      O 6735   4.629   1.803   1.828 -0.1128  0.2887  0.0045
 2175WAT     H1 6736   4.594   1.839   1.909  0.7854 -0.1273  0.5974
 2175WAT     H2 6737   4.686   1.872   1.793 -1.7504  1.1192 -1.1620
 2176WAT      O 6738   2.404   2.015   1.137  0.3228 -0.1131 -0.4809
 2176WAT     H1 6739   2.476   1.954   1.122 -0.0069 -0.5303 -0.4013
 2176WAT     H2 6740   2.325   1.962   1.124 -0.0445 -0.7288  3.1828
 2177WAT      O 6741   3.815   3.377   4.717 -0.3848 -0.5371  0.2341
 2177WAT     H1 6742   3.785   3.430   4.791  2.6336  0.6985  0.7108
 2177WAT     H2 6743   3.887   3.324   4.754  0.4635 -0.7025 -1.5578
 2178WAT      O 6744   2.454   3.181   3.768 -0.2778 -0.3989 -0.9564
 2178WAT     H1 6745   2.397   3.136   3.706  0.2741  0.5465 -2.2004
 2178WAT     H2 6746   2.432   3.144   3.853 -0.9236 -1.8713 -1.7404
 2179WAT      O 6747   1.350   1.652   0.083  0.4254 -0.5933 -0.6090
 2179WAT     H1 6748   1.303   1.578   0.046  0.5289 -1.3182  0.6513
 2179WAT     H2 6749   1.306   1.668   0.166  0.5812  0.5961 -0.7430
 2180WAT      O 6750   2.056   1.510   5.132 -0.1526  0.6293  0.0070
 2180WAT     H1 6751   2.026   1.466   5.053 -2.1211  2.1420 -0.1779
 2180WAT     H2 6752   1.978   1.514   5.188  0.7859  1.0054  1.3459
 2181WAT      O 6753   0.564   0.555   3.936 -0.1159  0.1535  0.2343
 2181WAT     H1 6754   0.519   0.480   3.974 -0.7728  1.4155  2.0461
 2181WAT     H2 6755   0.644   0.518   3.898  0.5847 -1.2380  2.8508
 2182WAT      O 6756   1.167   2.701   5.263  0.4625  0.0614  0.0739
 2182WAT     H1 6757   1.220   2.622   5.271  0.7860  0.4212  1.9442
 2182WAT     H2 6758   1.094   2.675   5.206  1.1647 -1.2262 -0.2821
 2183WAT      O 6759   0.521   2.921   2.129  0.3393 -0.3872 -0.5720
 2183WAT     H1 6760   0.503   2.900   2.221  0.8584 -2.0491 -0.8109
 2183WAT     H2 6761   0.615   2.906   2.120  0.4118  0.4036 -1.2305
 2184WAT      O 6762   1.006   1.432   5.041  0.6758 -0.1924 -0.1977
 2184WAT     H1 6763   1.017   1.490   5.116  0.4908  0.0415 -0.3488
 2184WAT     H2 6764   1.084   1.377   5.041  1.6600  1.1404 -1.0028
 2185WAT      O 6765   0.588   2.864   4.579 -0.0612 -0.1268  0.0711
 2185WAT     H1 6766   0.570   2.931   4.513  0.3994 -0.1212 -0.0541
 2185WAT     H2 6767   0.585   2.782   4.530  0.9455 -0.0751 -0.1065
 2186WAT      O 6768   2.998   0.801   1.415  0.2813 -0.4346  0.2390
 2186WAT     H1 6769   3.017   0.893   1.395 -0.3938 -0.6927 -1.8392
 2186WAT     H2 6770   2.902   0.797   1.418  0.3006 -1.1190  0.0380
 2187WAT      O 6771   2.675   1.292   3.631  0.2418  0.9125 -1.1368
 2187WAT     H1 6772   2.639   1.343   3.703 -0.3054  0.4307 -1.0558
 2187WAT     H2 6773   2.769   1.299   3.641  0.1989 -0.0537  0.3081
 2188WAT      O 6774   0.712   2.126   4.006 -0.7341  0.1246  0.2384
 2188WAT     H1 6775   0.645   2.070   4.045 -1.3562  0.3812 -0.4424
 2188WAT     H2 6776   0.694   2.213   4.042 -0.7066  0.1748  0.1303
 2189WAT      O 6777   1.158   0.768   1.183  0.2813 -0.6836 -0.1388
 2189WAT     H1 6778   1.243   0.740   1.150  0.1504 -0.5113 -0.6217
 2189WAT     H2 6779   1.099   0.695   1.164  0.6708 -1.5826  1.7994
 2190WAT      O 6780   0.945   1.832   0.098  0.0047  0.1348  0.1683
 2190WAT     H1 6781   1.005   1.864   0.165  0.0343  0.0471  0.1849
 2190WAT     H2 6782   0.863   1.816   0.144  0.2016 -0.5131  0.3153
 2191WAT      O 6783   4.122   0.179   1.538 -0.1950  0.1976  0.4694
 2191WAT     H1 6784   4.084   0.114   1.479  0.5149 -0.5758  0.8335
 2191WAT     H2 6785   4.152   0.249   1.480  0.4196 -0.5128 -0.1052
 2192WAT      O 6786   3.644   2.960   4.165  0.1210  0.2649  0.0907
 2192WAT     H1 6787   3.553   2.952   4.135 -0.2381  1.2925  0.8308
 2192WAT     H2 6788   3.674   3.043   4.127  0.4600  0.3629  0.5589
 2193WAT      O 6789   0.297   2.595   4.321  0.0639 -0.1240 -0.1531
 2193WAT     H1 6790   0.316   2.666   4.260 -0.8698 -0.6292 -1.0514
 2193WAT     H2 6791   0.248   2.531   4.270 -0.8456 -0.5162  1.1378
 2194WAT      O 6792   1.063   3.421   3.033  0.2782 -0.1124  0.2620
 2194WAT     H1 6793   1.025   3.506   3.054  2.5628  1.0331  0.0556
 2194WAT     H2 6794   1.100   3.390   3.116  0.5565 -0.3015  0.0685
 2195WAT      O 6795   0.963   0.067   2.281 -1.0381  0.2798 -0.1134
 2195WAT     H1 6796   0.893   0.093   2.341 -0.6945 -1.7965  1.2812
 2195WAT     H2 6797   0.953   0.125   2.206 -0.5468  4.1131  2.4915
 2196WAT      O 6798   1.687   2.817   5.797  0.1470  0.8893  0.2066
 2196WAT     H1 6799   1.749   2.863   5.854 -0.2273 -0.7942  2.0640
 2196WAT     H2 6800   1.719   2.727   5.794 -1.1106  0.4398 -0.4198
 2197WAT      O 6801   0.488   1.750   5.301  0.2169  0.4957 -0.0847
 2197WAT     H1 6802   0.495   1.780   5.210  0.5053  1.3094  0.1957
 2197WAT     H2 6803   0.423   1.808   5.341  0.2077  0.2454  0.2687
 2198WAT      O 6804   1.530   2.306   2.071  0.1366  0.1230  0.0398
 2198WAT     H1 6805   1.491   2.219   2.056 -0.8681  0.9042 -2.3765
 2198WAT     H2 6806   1.514   2.353   1.990  5.3885  0.8896 -0.8949
 2199WAT      O 6807   2.539   5.481   3.150  0.5553 -0.4555  0.2721
 2199WAT     H1 6808   2.598   5.480   3.225  1.2769 -0.2492 -0.2786
 2199WAT     H2 6809   2.597   5.488   3.074 -0.2275  1.2937 -0.2205
 2200WAT      O 6810   0.290   5.168   3.276  0.2787 -0.4056 -0.2893
 2200WAT     H1 6811   0.296   5.179   3.181 -0.8136 -0.0136 -0.3207
 2200WAT     H2 6812   0.344   5.238   3.312 -0.2216  0.1429 -0.6033
 2201WAT      O 6813   4.458   3.273   0.900 -0.0487  0.3003  0.1617
 2201WAT     H1 6814   4.388   3.274   0.835  0.2597  2.0078 -0.1794
 2201WAT     H2 6815   4.512   3.350   0.879  1.6460 -0.6748  0.7212
 2202WAT      O 6816   3.831   3.804   2.096  0.1151  0.0274 -0.2507
 2202WAT     H1 6817   3.782   3.868   2.148  1.7322  1.7338 -0.7162
 2202WAT     H2 6818   3.892   3.765   2.158 -0.1951 -0.3647 -0.1856
 2203WAT      O 6819   0.210   0.168   4.122  0.1661 -0.2384 -0.4990
 2203WAT     H1 6820   0.221   0.090   4.177 -0.5375 -1.1926 -1.6513
 2203WAT     H2 6821   0.195   0.133   4.034 -2.5363  1.0797 -0.6803
 2204WAT      O 6822   0.885   2.689   1.801 -0.1625  0.2486  0.0009
 2204WAT     H1 6823   0.895   2.674   1.707  1.5414  3.8961 -0.5564
 2204WAT     H2 6824   0.797   2.726   1.810  0.2080  1.2545 -0.4051
 2205WAT      O 6825   2.190   1.183   2.017  0.0486  0.0711  0.1942
 2205WAT     H1 6826   2.222   1.163   1.929 -3.7687 -1.2119 -1.0830
 2205WAT     H2 6827   2.195   1.278   2.023  3.3216  0.0410 -0.0110
 2206WAT      O 6828   4.206   5.571   2.109 -0.5039 -0.3253  0.7368
 2206WAT     H1 6829   4.132   5.549   2.166 -0.7517  2.1283  1.4720
 2206WAT     H2 6830   4.166   5.609   2.031 -0.0649 -0.3321  0.5044
 2207WAT      O 6831   2.881   3.097   4.773  0.2193  0.1312 -0.6027
 2207WAT     H1 6832   2.799   3.050   4.788 -0.9125  2.4673  1.0866
 2207WAT     H2 6833   2.949   3.031   4.788 -1.2839 -1.3147  0.2201
 2208WAT      O 6834   0.935   1.295   4.759  0.1895 -0.4095 -0.2724
 2208WAT     H1 6835   0.972   1.276   4.845  0.9684 -1.1045 -0.7517
 2208WAT     H2 6836   0.988   1.368   4.726 -0.4106  0.1696  0.0211
 2209WAT      O 6837   4.925   2.652   0.991  0.2667 -0.6280 -0.6673
 2209WAT     H1 6838   4.939   2.609   0.906  1.2539 -0.2254 -0.7184
 2209WAT     H2 6839   5.009   2.694   1.010 -0.4249  0.5647 -0.2056
 2210WAT      O 6840   4.531   1.093   4.463  0.4639 -0.0837 -0.0555
 2210WAT     H1 6841   4.587   1.022   4.431  3.1586  1.7597  0.2245
 2210WAT     H2 6842   4.494   1.133   4.385 -1.8825 -2.2389 -0.1914
 2211WAT      O 6843   1.207   3.023   1.379  0.6230  0.2257  0.2632
 2211WAT     H1 6844   1.265   3.097   1.363  1.0653 -0.2364 -0.3176
 2211WAT     H2 6845   1.247   2.950   1.331  0.3495 -0.4608  1.0395
 2212WAT      O 6846   0.305   1.334   1.214  0.4908  0.9242 -0.0908
 2212WAT     H1 6847   0.295   1.404   1.149  0.1459  2.5358  1.5910
 2212WAT     H2 6848   0.373   1.277   1.178  0.2319  1.6815 -1.8884
 2213WAT      O 6849   4.931   2.001   3.665  0.1785 -0.3231  0.1098
 2213WAT     H1 6850   4.847   1.967   3.633 -0.1793  1.1180 -0.5606
 2213WAT     H2 6851   4.911   2.090   3.695  1.2196 -0.4130  1.1465
 2214WAT      O 6852   2.933   1.715   1.116  0.1083  0.0056 -0.1495
 2214WAT     H1 6853   2.862   1.738   1.176  0.7335 -0.5085  0.8118
 2214WAT     H2 6854   2.899   1.642   1.066 -0.1004 -0.1539  0.2200
 2215WAT      O 6855   2.328   2.199   3.111  0.5912  0.4888 -0.2195
 2215WAT     H1 6856   2.262   2.200   3.041  0.5079  1.9091 -0.1507
 2215WAT     H2 6857   2.331   2.289   3.142  2.6649  0.4940 -0.2952
 2216WAT      O 6858   3.961   1.448   0.807  0.7941  0.1187 -0.2463
 2216WAT     H1 6859   3.886   1.463   0.750  0.9624 -0.9559 -0.8006
 2216WAT     H2 6860   4.037   1.460   0.749  0.9479 -1.8312 -0.5285
 2217WAT      O 6861   0.921   4.308   3.069 -0.6840 -0.0139  0.5260
 2217WAT     H1 6862   0.933   4.361   3.148 -2.3283 -0.0348  0.8141
 2217WAT     H2 6863   0.856   4.243   3.093 -0.5924 -0.5479 -0.6117
 2218WAT      O 6864   1.808   0.796   3.661  0.2018 -0.0707 -0.2563
 2218WAT     H1 6865   1.871   0.850   3.613  0.4436  0.7964  1.0057
 2218WAT     H2 6866   1.760   0.749   3.592  0.7836  0.8569 -1.3286
 2219WAT      O 6867   0.848   4.149   5.442  0.0549 -0.4749 -0.2917
 2219WAT     H1 6868   0.772   4.173   5.494 -0.3758 -0.5837 -0.8620
 2219WAT     H2 6869   0.917   4.209   5.471 -0.3443 -0.1474 -0.0171
 2220WAT      O 6870   0.520   1.653   2.037  0.0470 -0.4839  0.0285
 2220WAT     H1 6871   0.580   1.726   2.021 -0.7339  0.2463  0.3665
 2220WAT     H2 6872   0.435   1.685   2.007 -0.1065 -1.6695 -0.8734
 2221WAT      O 6873   0.979   3.178   3.573  0.2873  0.2388 -0.2491
 2221WAT     H1 6874   0.922   3.148   3.503 -0.8885  2.2237 -0.1835
 2221WAT     H2 6875   0.920   3.205   3.643  1.3746  0.3472  0.6589
 2222WAT      O 6876   2.350   3.270   1.464  0.4744  0.4253  0.1509
 2222WAT     H1 6877   2.321   3.349   1.509 -0.5774 -0.3896  0.9800
 2222WAT     H2 6878   2.440   3.257   1.494  0.8388  1.5812 -0.4142
 2223WAT      O 6879   1.887   4.637   3.269 -0.0643 -0.1803 -0.7310
 2223WAT     H1 6880   1.978   4.612   3.284 -0.3498 -0.4046  0.7847
 2223WAT     H2 6881   1.886   4.732   3.278  0.0889 -0.1208 -1.2644
 2224WAT      O 6882   1.223   1.504   5.441  0.7631  0.5917  0.2732
 2224WAT     H1 6883   1.240   1.463   5.526 -1.4319  0.6982  0.8473
 2224WAT     H2 6884   1.301   1.556   5.423  2.4278 -1.5261  0.9032
 2225WAT      O 6885   2.008   3.636   1.330  0.1084 -0.0025  0.1686
 2225WAT     H1 6886   1.933   3.581   1.309 -0.5249  1.3492 -1.2919
 2225WAT     H2 6887   2.060   3.638   1.250  0.5638  0.8114  0.4750
 2226WAT      O 6888   3.481   2.170   2.364 -0.2894  0.9706 -0.0338
 2226WAT     H1 6889   3.503   2.132   2.449  0.5002  0.9875 -0.2240
 2226WAT     H2 6890   3.490   2.097   2.302 -1.9612  0.6663  0.0213
 2227WAT      O 6891   2.339   1.038   1.385  0.2836  0.0956  0.1152
 2227WAT     H1 6892   2.257   1.086   1.382 -0.7746 -1.6581 -1.3349
 2227WAT     H2 6893   2.373   1.042   1.295  1.3129  0.0248  0.4818
 2228WAT      O 6894   2.421   2.041   0.749  0.2560  0.0668  0.6078
 2228WAT     H1 6895   2.373   2.123   0.759  0.0412 -0.0085  0.2185
 2228WAT     H2 6896   2.362   1.974   0.784  0.9741  0.2220  2.2014
 2229WAT      O 6897   0.836   2.046   1.382  0.3503 -0.1004 -0.2912
 2229WAT     H1 6898   0.872   2.114   1.326 -0.7538  1.9909  1.4016
 2229WAT     H2 6899   0.770   2.090   1.435 -0.2581 -2.4501  1.0852
 2230WAT      O 6900   0.810   5.391   1.831 -0.0151 -0.4000 -0.2098
 2230WAT     H1 6901   0.749   5.323   1.859 -2.1977  1.4207 -0.2083
 2230WAT     H2 6902   0.871   5.401   1.903  0.9192 -2.9216 -0.5852
 2231WAT      O 6903   4.374   1.594   3.868  0.0011 -0.0054  0.2298
 2231WAT     H1 6904   4.431   1.522   3.893 -1.6801 -0.8261  1.9512
 2231WAT     H2 6905   4.418   1.672   3.901  0.6310 -0.4974  0.5765
 2232WAT      O 6906   0.510   1.563   0.295 -0.0499  0.0351  0.4141
 2232WAT     H1 6907   0.421   1.532   0.275 -0.2802 -0.0394  1.4821
 2232WAT     H2 6908   0.496   1.641   0.348  0.5362  0.5294 -0.1482
 2233WAT      O 6909   2.819   1.373   4.014  0.2176  0.4792  0.2421
 2233WAT     H1 6910   2.822   1.348   3.922  1.2935 -0.3760  0.4957
 2233WAT     H2 6911   2.847   1.465   4.015 -1.9713  1.2183 -0.4932
 2234WAT      O 6912   1.697   0.379   1.665 -0.0515 -0.7174  0.1703
 2234WAT     H1 6913   1.642   0.359   1.741 -0.7326  2.6824  0.7307
 2234WAT     H2 6914   1.765   0.436   1.700  1.6546 -1.8260 -1.2212
 2235WAT      O 6915   4.910   1.263   3.634 -0.3744  0.3153 -0.4105
 2235WAT     H1 6916   4.951   1.246   3.549 -0.5246  0.4286 -0.5069
 2235WAT     H2 6917   4.886   1.356   3.631  1.9516  1.0246  0.7451
 2236WAT      O 6918   0.861   1.928   1.730 -0.3052 -0.0160 -0.5791
 2236WAT     H1 6919   0.919   1.883   1.791 -0.7637 -0.8540 -0.7494
 2236WAT     H2 6920   0.820   1.858   1.679 -0.0718  0.6535 -1.7218
 2237WAT      O 6921   0.083   3.575   4.280 -0.0387  0.0674  0.0733
 2237WAT     H1 6922   0.037   3.552   4.200 -2.7865  0.3115  1.4527
 2237WAT     H2 6923   0.102   3.669   4.271 -0.4704  0.1247 -0.2458
 2238WAT      O 6924   3.317   4.929   3.702 -0.5020  0.3218  0.3464
 2238WAT     H1 6925   3.332   4.995   3.634 -0.6816  1.2331  1.1701
 2238WAT     H2 6926   3.335   4.974   3.784  0.3679 -0.9521  0.8896
 2239WAT      O 6927   2.171   3.216   4.115  0.3182  0.1839 -0.0671
 2239WAT     H1 6928   2.114   3.249   4.046  2.1660  1.7823 -0.9490
 2239WAT     H2 6929   2.218   3.293   4.146  0.0943 -0.6270  2.4960
 2240WAT      O 6930   2.610   2.618   4.861  0.3708  0.6511 -0.3508
 2240WAT     H1 6931   2.553   2.582   4.928 -0.1656  1.2559 -0.4678
 2240WAT     H2 6932   2.691   2.566   4.867  0.0416  0.1962  0.2323
 2241WAT      O 6933   2.771   4.215   1.256  0.3897  0.8761  0.3354
 2241WAT     H1 6934   2.688   4.255   1.282 -0.4646  0.1742 -1.1678
 2241WAT     H2 6935   2.832   4.288   1.250 -0.4936  1.6170  0.1036
 2242WAT      O 6936   1.153   2.054   1.991 -0.8498  0.1115  0.4510
 2242WAT     H1 6937   1.133   2.144   1.966  0.3231  0.0990 -0.6697
 2242WAT     H2 6938   1.248   2.047   1.981 -0.9457 -1.3309  0.2270
 2243WAT      O 6939   1.213   4.449   1.774  0.2226  0.0991 -0.6433
 2243WAT     H1 6940   1.161   4.380   1.814 -1.3671  0.6933 -1.5842
 2243WAT     H2 6941   1.302   4.415   1.773  0.4925  0.1601  3.6130
 2244WAT      O 6942   0.906   2.172   1.623 -0.2525  0.2485  0.0510
 2244WAT     H1 6943   0.907   2.136   1.534 -0.8257 -0.5037  0.3327
 2244WAT     H2 6944   0.902   2.095   1.680  2.1353  0.6111  0.8323
 2245WAT      O 6945   1.072   0.839   3.223 -0.5367 -0.3456  0.0057
 2245WAT     H1 6946   1.028   0.886   3.294  1.6650  0.3582  0.9831
 2245WAT     H2 6947   1.012   0.848   3.148 -1.1057  2.3781  0.6768
 2246WAT      O 6948   1.570   2.139   1.205  0.6643 -0.0576 -0.6643
 2246WAT     H1 6949   1.550   2.152   1.298  1.7277 -0.5874 -0.3446
 2246WAT     H2 6950   1.535   2.053   1.185 -1.4394  0.8911 -1.3339
 2247WAT      O 6951   4.271   3.059   4.276 -0.3038 -0.2305  0.0100
 2247WAT     H1 6952   4.196   3.028   4.326  0.1268 -1.1221  0.1131
 2247WAT     H2 6953   4.243   3.051   4.185 -0.9072  0.9352  0.0741
 2248WAT      O 6954   1.756   3.714   3.824  0.2944 -0.0298 -0.2849
 2248WAT     H1 6955   1.801   3.648   3.771 -1.8628 -2.5613  0.7989
 2248WAT     H2 6956   1.688   3.748   3.767  0.3764  0.0471 -0.3367
 2249WAT      O 6957   1.969   1.519   5.561  0.8325 -0.0420 -0.2549
 2249WAT     H1 6958   2.046   1.488   5.513  1.7007 -1.7020  2.0133
 2249WAT     H2 6959   1.989   1.611   5.581  2.3615 -0.4794  0.4223
 2250WAT      O 6960   1.279   1.648   5.090  0.0342  0.2076 -0.4749
 2250WAT     H1 6961   1.357   1.663   5.144  0.0626 -1.6051  0.0606
 2250WAT     H2 6962   1.232   1.578   5.135 -3.4586  3.0452  0.8522
 2251WAT      O 6963   2.421   1.383   1.939 -0.6133 -0.3978 -0.6300
 2251WAT     H1 6964   2.443   1.473   1.962  1.4862 -0.7432 -1.0734
 2251WAT     H2 6965   2.499   1.332   1.964 -2.8127 -2.6428  2.4472
 2252WAT      O 6966   2.473   1.706   1.676 -0.4881 -0.0011  0.1980
 2252WAT     H1 6967   2.547   1.740   1.625 -1.0986  0.3340 -0.4960
 2252WAT     H2 6968   2.493   1.614   1.689  0.6842  0.3749  1.1818
 2253WAT      O 6969   4.744   2.058   5.543  0.1419  0.1149 -0.2116
 2253WAT     H1 6970   4.756   1.964   5.525  0.9560  0.4512 -1.5164
 2253WAT     H2 6971   4.666   2.082   5.492  0.2243  0.2489 -0.2742
 2254WAT      O 6972   0.880   3.280   1.114  0.2986 -0.3727  0.1506
 2254WAT     H1 6973   0.961   3.280   1.064  0.9318 -0.1253  1.1509
 2254WAT     H2 6974   0.816   3.321   1.056  1.1529  0.4354 -0.2570
 2255WAT      O 6975   4.312   3.648   0.052  0.2114  0.3521  0.4166
 2255WAT     H1 6976   4.378   3.617   0.115  0.2954 -0.0733  0.1210
 2255WAT     H2 6977   4.307   3.742   0.068  0.4560  0.2958  0.8532
 2256WAT      O 6978   0.816   4.671   3.940  0.0245 -0.3356  0.2029
 2256WAT     H1 6979   0.872   4.596   3.959  0.8012 -0.5568 -2.5987
 2256WAT     H2 6980   0.735   4.632   3.907 -0.2142  0.0521  0.3277
 2257WAT      O 6981   0.073   4.278   4.786  0.0998 -0.0603 -0.6882
 2257WAT     H1 6982   0.107   4.205   4.838 -0.4126 -0.9783 -1.6064
 2257WAT     H2 6983   0.071   4.352   4.847 -0.3538 -1.0690  0.5581
 2258WAT      O 6984   4.455   2.841   0.652  0.4933 -0.1308  0.0462
 2258WAT     H1 6985   4.475   2.793   0.732  0.1535  0.0294  0.2301
 2258WAT     H2 6986   4.498   2.926   0.663 -1.6592  0.8915  1.2172
 2259WAT      O 6987   4.021   3.067   4.425  0.8964  0.0240  0.3202
 2259WAT     H1 6988   4.037   3.024   4.510 -1.8892 -1.4417  0.2281
 2259WAT     H2 6989   3.971   3.145   4.447 -0.5534 -0.7952  0.0153
 2260WAT      O 6990   0.839   4.304   3.551 -0.1010 -0.5181 -0.7111
 2260WAT     H1 6991   0.829   4.216   3.586  0.2949 -1.2499 -2.3345
 2260WAT     H2 6992   0.779   4.357   3.603 -1.2097 -1.9588 -0.4529
 2261WAT      O 6993   2.049   2.883   3.395  0.1586 -0.2215  0.0395
 2261WAT     H1 6994   2.038   2.948   3.326 -0.3746 -1.3546 -0.9775
 2261WAT     H2 6995   1.978   2.901   3.456  2.0260  2.3530  1.6818
 2262WAT      O 6996   4.225   2.732   5.220  0.2751 -0.5379 -0.0176
 2262WAT     H1 6997   4.303   2.704   5.173  2.2892 -0.3786  2.9794
 2262WAT     H2 6998   4.213   2.824   5.194  1.8607 -0.1884  0.3698
 2263WAT      O 6999   3.749   2.194   4.869  0.6087 -0.2811  0.3724
 2263WAT     H1 7000   3.744   2.124   4.934 -0.9644 -0.5951 -0.0322
 2263WAT     H2 7001   3.706   2.268   4.912  2.8204  0.6733  1.0342
 2264WAT      O 7002   0.979   3.760   1.966  0.5748 -0.8249 -0.9251
 2264WAT     H1 7003   0.900   3.711   1.944 -0.2156 -0.4439  0.8466
 2264WAT     H2 7004   1.002   3.730   2.054  0.4859  1.4028 -0.0794
 2265WAT      O 7005   1.483   4.547   3.070 -0.3278 -0.4106 -0.0004
 2265WAT     H1 7006   1.540   4.518   3.141  2.0883  0.4731 -1.4665
 2265WAT     H2 7007   1.403   4.577   3.115  0.5143 -1.2028  2.1917
 2266WAT      O 7008   1.382   5.138   3.625 -0.2846 -0.5824  0.4951
 2266WAT     H1 7009   1.468   5.116   3.660 -0.5441 -1.0258  0.8542
 2266WAT     H2 7010   1.325   5.068   3.655 -0.6383 -0.6549 -0.3035
 2267WAT      O 7011   1.431   4.788   4.471 -0.4104 -0.1914  0.5828
 2267WAT     H1 7012   1.490   4.830   4.409  0.3371 -0.8976  0.7931
 2267WAT     H2 7013   1.457   4.696   4.470 -1.4142 -0.4840  0.7988
 2268WAT      O 7014   0.574   1.502   4.299 -0.6056 -0.4353 -0.2997
 2268WAT     H1 7015   0.646   1.478   4.358 -1.0694 -1.5234 -0.1488
 2268WAT     H2 7016   0.496   1.500   4.355 -0.6755  1.5984 -0.2538
 2269WAT      O 7017   1.071   3.760   5.489 -0.0633  0.1885 -0.2320
 2269WAT     H1 7018   1.106   3.685   5.440  1.0307  0.2900  0.3627
 2269WAT     H2 7019   1.009   3.720   5.551  2.2372 -0.6030  1.7364
 2270WAT      O 7020   0.661   1.736   4.441  0.3529  0.1457 -0.2877
 2270WAT     H1 7021   0.579   1.704   4.403  0.7252 -0.4304 -0.6111
 2270WAT     H2 7022   0.652   1.718   4.534 -0.2540  0.8878 -0.1946
 2271WAT      O 7023   4.783   0.503   3.818  0.4059  0.0688  0.0441
 2271WAT     H1 7024   4.766   0.594   3.795  1.2258  0.2732  0.2135
 2271WAT     H2 7025   4.728   0.452   3.758  0.0575  0.6700 -0.1510
 2272WAT      O 7026   3.387   2.923   4.070 -0.1199 -0.0677 -0.1549
 2272WAT     H1 7027   3.352   2.923   3.981  0.1395 -0.6095 -0.2627
 2272WAT     H2 7028   3.352   2.843   4.109 -1.2138  0.7683  0.6318
 2273WAT      O 7029   1.752   1.759   1.979 -0.1797 -0.4233  0.0480
 2273WAT     H1 7030   1.748   1.855   1.981 -0.6396 -0.4289 -0.2987
 2273WAT     H2 7031   1.742   1.737   1.886  0.9909 -0.7774 -0.0116
 2274WAT      O 7032   1.974   2.001   1.663 -0.0116 -0.3044  0.2050
 2274WAT     H1 7033   1.950   1.909   1.674 -0.9719  0.1661  2.6501
 2274WAT     H2 7034   1.992   2.032   1.751  0.9179  1.7240 -0.6365
 2275WAT      O 7035   2.589   0.212   2.620  0.6784 -0.0447 -0.1688
 2275WAT     H1 7036   2.643   0.289   2.608  0.6913 -0.2257 -1.4063
 2275WAT     H2 7037   2.650   0.138   2.614  0.6490 -0.1735  0.8803
 2276WAT      O 7038   3.116   1.164   3.505 -0.1947 -0.4336 -0.0833
 2276WAT     H1 7039   3.041   1.104   3.508  0.3007 -1.0637 -0.1528
 2276WAT     H2 7040   3.193   1.107   3.511  0.2951  0.1619 -0.5816
 2277WAT      O 7041   2.201   1.808   1.158  0.2499 -0.4715 -0.5215
 2277WAT     H1 7042   2.219   1.757   1.237  0.8154  0.5179  0.0165
 2277WAT     H2 7043   2.108   1.792   1.140 -0.3131  0.4797  1.2692
 2278WAT      O 7044   2.008   5.188   2.738  0.6768  0.2116  0.2842
 2278WAT     H1 7045   2.021   5.196   2.643  0.6105 -1.7402  0.0822
 2278WAT     H2 7046   2.071   5.121   2.765  0.1288  0.1657  1.4999
 2279WAT      O 7047   4.277   0.748   2.553 -0.4091  0.2922 -0.4181
 2279WAT     H1 7048   4.197   0.799   2.566 -0.8874 -0.6095  0.2797
 2279WAT     H2 7049   4.263   0.703   2.469 -0.3977  0.5399 -0.5556
 2280WAT      O 7050   4.957   1.477   1.190  0.2851  0.2287 -0.0156
 2280WAT     H1 7051   4.975   1.553   1.246 -0.0441  0.9641 -0.8845
 2280WAT     H2 7052   4.902   1.511   1.120  1.4730 -0.4514 -1.3434
 2281WAT      O 7053   4.546   3.726   3.360 -0.2053  0.3731 -0.2146
 2281WAT     H1 7054   4.483   3.790   3.392  1.8463  1.6055  1.6781
 2281WAT     H2 7055   4.617   3.779   3.322  1.0635 -0.7857  0.4345
 2282WAT      O 7056   2.199   2.122   5.826 -0.3136  0.5712 -0.3614
 2282WAT     H1 7057   2.232   2.182   5.759  0.7174 -0.4884 -0.8416
 2282WAT     H2 7058   2.249   2.144   5.905  0.8927 -0.3892 -0.8361
 2283WAT      O 7059   1.197   2.528   4.470  0.2131  0.0975  0.0679
 2283WAT     H1 7060   1.288   2.509   4.446  0.1313 -1.1801  0.7075
 2283WAT     H2 7061   1.198   2.620   4.496  1.9986 -0.6466  3.0266
 2284WAT      O 7062   4.594   0.545   2.845 -0.2964 -0.2674 -0.2048
 2284WAT     H1 7063   4.626   0.607   2.912  0.0660  1.6878 -2.0715
 2284WAT     H2 7064   4.669   0.533   2.786 -1.0427 -0.7833 -1.0745
 2285WAT      O 7065   3.851   1.401   3.594  0.1340 -0.0538 -0.5537
 2285WAT     H1 7066   3.796   1.431   3.667 -1.4148 -2.0937 -0.7758
 2285WAT     H2 7067   3.884   1.482   3.554 -0.8956  1.1848  0.9718
 2286WAT      O 7068   4.534   2.912   4.474  0.1884 -0.0654  0.5371
 2286WAT     H1 7069   4.610   2.958   4.511 -0.0256  2.7504 -2.0898
 2286WAT     H2 7070   4.468   2.914   4.544  2.5507 -3.3601  3.2252
 2287WAT      O 7071   1.610   0.695   4.085 -0.2741  0.1872  0.5013
 2287WAT     H1 7072   1.523   0.657   4.096 -0.4803  0.4277 -0.2102
 2287WAT     H2 7073   1.630   0.682   3.992  1.0198 -1.0493  0.9254
 2288WAT      O 7074   4.280   5.426   3.947  0.1879 -0.2455 -0.5868
 2288WAT     H1 7075   4.321   5.366   3.885  1.0998 -1.9158  1.4949
 2288WAT     H2 7076   4.351   5.485   3.973 -0.5299  1.3887 -2.0783
 2289WAT      O 7077   0.188   3.965   3.804 -0.4382  0.2702  0.3505
 2289WAT     H1 7078   0.188   3.913   3.724  0.1056  1.1219 -0.2160
 2289WAT     H2 7079   0.194   3.900   3.874 -1.9630 -0.5559 -0.2279
 2290WAT      O 7080   3.064   0.271   2.251 -0.6062 -0.3288 -0.2877
 2290WAT     H1 7081   3.024   0.354   2.227  0.1290 -0.3161 -1.5512
 2290WAT     H2 7082   3.123   0.250   2.178 -1.2969 -2.3004 -0.3373
 2291WAT      O 7083   2.037   1.778   5.574 -0.4176  0.3277 -0.4805
 2291WAT     H1 7084   2.001   1.853   5.622  1.1268  1.5765 -1.1671
 2291WAT     H2 7085   2.132   1.792   5.575 -0.0074 -2.0620  0.0225
 2292WAT      O 7086   1.598   5.219   1.329  0.5523 -0.0195  0.1109
 2292WAT     H1 7087   1.630   5.308   1.320 -0.2507  0.2176 -0.5300
 2292WAT     H2 7088   1.673   5.169   1.362  1.0795  0.8343  0.2155
 2293WAT      O 7089   1.144   3.549   0.006 -0.3515  0.2460  0.0881
 2293WAT     H1 7090   1.172   3.462   0.034 -0.3643 -0.1316 -1.0294
 2293WAT     H2 7091   1.151   3.603   0.085  0.7670 -0.4999  0.5222
 2294WAT      O 7092   3.496   3.852   0.826 -0.6359 -0.1782 -0.6309
 2294WAT     H1 7093   3.569   3.872   0.767  1.0389  0.8771  1.5978
 2294WAT     H2 7094   3.456   3.937   0.843 -0.1817 -0.2023  0.7543
 2295WAT      O 7095   1.887   3.878   1.369  0.1214 -0.0071  0.5130
 2295WAT     H1 7096   1.816   3.851   1.312 -0.3605  0.0579  1.0730
 2295WAT     H2 7097   1.949   3.805   1.367 -0.1078 -0.1936  0.2698
 2296WAT      O 7098   2.185   3.920   1.200 -0.0554 -0.1796  0.3258
 2296WAT     H1 7099   2.142   4.005   1.188  0.6135 -0.0236 -1.2636
 2296WAT     H2 7100   2.187   3.882   1.112  4.7569  0.6887 -0.2442
 2297WAT      O 7101   1.503   1.535   4.723  0.4722 -0.3363  0.0052
 2297WAT     H1 7102   1.421   1.577   4.751  1.1574 -0.0371  1.7080
 2297WAT     H2 7103   1.533   1.488   4.801  0.0862 -3.5555 -1.6063
 2298WAT      O 7104   2.101   0.680   2.994  0.8040  0.0074  0.0917
 2298WAT     H1 7105   2.056   0.600   2.966  1.3058 -0.1259 -0.3320
 2298WAT     H2 7106   2.187   0.650   3.023  0.2635  0.0988  1.9830
 2299WAT      O 7107   2.545   3.053   4.144  0.2041 -0.0624 -0.6437
 2299WAT     H1 7108   2.626   3.005   4.128  0.6084  0.8918 -1.6276
 2299WAT     H2 7109   2.497   3.048   4.061  0.4396  1.5246 -0.9092
 2300WAT      O 7110   0.370   4.023   4.096  0.5967  0.0257  0.6063
 2300WAT     H1 7111   0.380   4.090   4.164  0.7058  0.0610  0.5558
 2300WAT     H2 7112   0.286   3.981   4.115 -0.2228  1.2018 -0.2524
 2301WAT      O 7113   1.215   0.452   3.819  0.1636  0.3074 -0.0564
 2301WAT     H1 7114   1.280   0.431   3.886  1.2533 -0.7410 -1.3754
 2301WAT     H2 7115   1.153   0.379   3.822  0.0090  0.4453  0.0672
 2302WAT      O 7116   1.804   1.251   4.362 -0.2744  0.0253  0.0048
 2302WAT     H1 7117   1.784   1.194   4.437 -0.3851  1.3772  1.0465
 2302WAT     H2 7118   1.894   1.230   4.339 -0.6255 -1.2446 -0.2482
 2303WAT      O 7119   1.884   1.825   4.335 -0.6821  0.1342 -0.6298
 2303WAT     H1 7120   1.950   1.834   4.267  0.4945  0.6945  0.5454
 2303WAT     H2 7121   1.866   1.731   4.339  0.6411 -0.1323 -0.4351
 2304WAT      O 7122   2.835   2.019   1.807 -0.8355 -0.1142  0.3861
 2304WAT     H1 7123   2.873   1.973   1.882 -1.2413  0.6844  1.1014
 2304WAT     H2 7124   2.743   1.992   1.808 -1.5226  2.0418  1.9200
 2305WAT      O 7125   2.456   2.285   2.092 -0.1676 -0.0032  0.0287
 2305WAT     H1 7126   2.379   2.240   2.127 -0.1262  0.9840  1.4693
 2305WAT     H2 7127   2.525   2.218   2.091 -1.2753 -1.2518 -2.4453
 2306WAT      O 7128   0.079   2.118   2.620 -0.1214  0.5066  0.0274
 2306WAT     H1 7129   0.036   2.079   2.544  0.0707 -1.5754  0.9379
 2306WAT     H2 7130   0.017   2.105   2.692  0.9165 -0.1928  0.8179
 2307WAT      O 7131   4.921   0.027   3.697 -0.1496 -0.1632 -0.3436
 2307WAT     H1 7132   4.903  -0.059   3.659 -0.8945  0.5847 -1.7505
 2307WAT     H2 7133   4.951   0.080   3.623  0.9761  0.6150  0.6354
 2308WAT      O 7134   3.599   3.227   2.778  0.0572  0.1796 -0.4400
 2308WAT     H1 7135   3.578   3.147   2.825  1.2903 -0.4266 -0.8960
 2308WAT     H2 7136   3.582   3.297   2.842 -1.8992 -0.3334 -0.3287
 2309WAT      O 7137   0.612   2.071   0.680 -0.4239 -0.1858 -0.0041
 2309WAT     H1 7138   0.663   2.003   0.637  0.5751  0.6126 -0.1148
 2309WAT     H2 7139   0.634   2.061   0.773  0.8667  0.8790 -0.1647
 2310WAT      O 7140   1.887   2.422   2.622  0.2202  0.3162  0.0360
 2310WAT     H1 7141   1.852   2.391   2.539  0.4681  1.5541 -0.5441
 2310WAT     H2 7142   1.944   2.495   2.599  0.7781  0.2939  1.2402
 2311WAT      O 7143   2.742   4.861   4.260  0.0056  0.1674  0.0677
 2311WAT     H1 7144   2.677   4.818   4.314 -1.0847 -1.4339 -2.3384
 2311WAT     H2 7145   2.826   4.830   4.293 -0.6247 -0.7626  0.8288
 2312WAT      O 7146   1.542   1.689   2.525 -0.0184  0.2751 -0.0586
 2312WAT     H1 7147   1.530   1.680   2.619  1.7831  0.4030  0.2211
 2312WAT     H2 7148   1.503   1.611   2.488 -1.6656  0.6970  0.6787
 2313WAT      O 7149   3.661   3.066   5.775 -0.6205  0.0448 -0.3474
 2313WAT     H1 7150   3.637   3.081   5.684 -0.1073  0.8439 -0.3708
 2313WAT     H2 7151   3.610   3.131   5.824 -2.0335 -1.3602  0.1174
 2314WAT      O 7152   1.346   5.532   4.177 -0.3611  0.5706  0.4694
 2314WAT     H1 7153   1.289   5.536   4.254  0.6634 -0.1314  1.2944
 2314WAT     H2 7154   1.379   5.442   4.177  0.7550  0.9639  0.0153
 2315WAT      O 7155   4.070   2.412   3.496 -0.1733  0.6195  0.5947
 2315WAT     H1 7156   4.126   2.407   3.574  1.8755 -0.2489 -0.8600
 2315WAT     H2 7157   4.027   2.497   3.503  0.2850  0.7566  2.4250
 2316WAT      O 7158   2.606   0.589   3.324 -0.1635  0.6849 -0.4240
 2316WAT     H1 7159   2.554   0.559   3.399 -1.6785  0.2784 -1.5926
 2316WAT     H2 7160   2.609   0.684   3.334  0.4300  0.5763  0.6167
 2317WAT      O 7161   0.515   2.939   2.736  0.0512  0.5309  0.9226
 2317WAT     H1 7162   0.486   2.865   2.790 -0.2839  0.5787  0.8119
 2317WAT     H2 7163   0.465   2.930   2.655 -0.7269  1.4322  1.2786
 2318WAT      O 7164   1.581   1.342   3.037 -0.4835  0.0721 -0.4034
 2318WAT     H1 7165   1.610   1.348   3.128 -0.9782  0.5738 -0.2745
 2318WAT     H2 7166   1.496   1.385   3.036 -1.3809 -1.6012 -0.7103
 2319WAT      O 7167   4.082   1.045   1.485 -0.0385  0.5694 -0.4004
 2319WAT     H1 7168   4.153   1.101   1.516 -2.0104  3.3593 -0.4847
 2319WAT     H2 7169   4.023   1.105   1.439 -2.4676 -1.5800 -0.3330
 2320WAT      O 7170   2.491   0.980   1.882 -0.1739 -0.2728 -0.3602
 2320WAT     H1 7171   2.480   0.889   1.909 -2.0070  0.5911  2.2169
 2320WAT     H2 7172   2.429   0.992   1.810  0.0131 -1.0288 -0.6497
 2321WAT      O 7173   1.734   5.135   2.814  0.1757  0.2324  0.0991
 2321WAT     H1 7174   1.714   5.146   2.907  0.7570  0.8983  0.1540
 2321WAT     H2 7175   1.828   5.151   2.808 -0.0620  1.4641 -0.7800
 2322WAT      O 7176   1.418   0.958   3.128 -0.3379 -0.1587 -0.0140
 2322WAT     H1 7177   1.509   0.971   3.101 -0.4940  1.1020  0.0138
 2322WAT     H2 7178   1.423   0.897   3.201  0.2996 -1.6766 -1.2754
 2323WAT      O 7179   2.247   1.852   0.874 -0.6109  0.3951  0.1742
 2323WAT     H1 7180   2.296   1.771   0.859 -2.9172 -1.1805  0.5598
 2323WAT     H2 7181   2.213   1.843   0.964  0.7208  2.7548  0.9822
 2324WAT      O 7182   4.407   4.238   4.718 -0.1458  0.0468  0.2256
 2324WAT     H1 7183   4.357   4.280   4.648 -2.6813 -2.4337  0.3672
 2324WAT     H2 7184   4.471   4.183   4.672  0.1067  0.5709 -0.0546
 2325WAT      O 7185   1.643   4.987   3.670 -0.3692 -0.4669 -0.0995
 2325WAT     H1 7186   1.719   5.023   3.716  0.8801  0.1591 -2.4810
 2325WAT     H2 7187   1.650   4.892   3.682  1.6667 -0.5474 -1.4226
 2326WAT      O 7188   3.130   5.284   2.828 -0.0373  0.3715  0.1108
 2326WAT     H1 7189   3.222   5.279   2.851  0.6187  2.0158 -1.8451
 2326WAT     H2 7190   3.084   5.253   2.906  2.0973  1.2583  1.8361
 2327WAT      O 7191   1.969   2.019   5.684  0.1521 -0.6206  0.5894
 2327WAT     H1 7192   2.027   2.092   5.705 -0.4882 -0.4111  1.6951
 2327WAT     H2 7193   1.913   2.010   5.760 -0.2904 -1.7865  0.1548
 2328WAT      O 7194   4.880   4.188   3.189  0.4878 -0.4319 -0.2625
 2328WAT     H1 7195   4.902   4.105   3.146  0.4513 -0.7097  0.2500
 2328WAT     H2 7196   4.950   4.247   3.163  2.1240 -1.4206  1.6908
 2329WAT      O 7197   2.442   4.024   2.653 -0.4553 -0.5001  0.3093
 2329WAT     H1 7198   2.518   3.967   2.661  0.7114  0.8710 -0.3728
 2329WAT     H2 7199   2.453   4.088   2.723 -1.0632 -0.3696  0.2933
 2330WAT      O 7200   3.660   3.645   2.822 -0.1726  0.1445  0.0718
 2330WAT     H1 7201   3.686   3.570   2.876 -0.2971  0.3377  0.4029
 2330WAT     H2 7202   3.566   3.654   2.838  0.0748  1.1370  0.9842
 2331WAT      O 7203   3.835   5.376   3.471  0.0177  0.3504  0.6357
 2331WAT     H1 7204   3.797   5.288   3.468  0.2705  0.2661 -0.2056
 2331WAT     H2 7205   3.930   5.361   3.473  0.3117  0.5850 -3.6094
 2332WAT      O 7206   2.363   1.006   2.436 -0.5556  0.1591  0.1117
 2332WAT     H1 7207   2.372   1.091   2.480 -0.1927  0.4380 -0.4842
 2332WAT     H2 7208   2.287   0.965   2.478  0.6962 -0.2667  2.0809
 2333WAT      O 7209   2.092   5.328   2.955  0.0557  0.1227  0.3218
 2333WAT     H1 7210   2.134   5.292   3.033 -1.3849  0.5332  1.3470
 2333WAT     H2 7211   2.065   5.252   2.905  1.9247 -0.1451 -0.3449
 2334WAT      O 7212   2.424   3.532   1.898 -0.4419  0.1799 -0.6998
 2334WAT     H1 7213   2.433   3.437   1.887 -1.4607  0.3393 -3.8274
 2334WAT     H2 7214   2.512   3.561   1.920  0.2564 -1.3285 -1.3048
 2335WAT      O 7215   3.081   1.571   2.694  0.1466 -0.0017  0.0447
 2335WAT     H1 7216   3.164   1.579   2.647 -0.3154  0.7244 -0.6766
 2335WAT     H2 7217   3.090   1.628   2.770  0.6700 -0.7053  0.5264
 2336WAT      O 7218   3.598   1.999   2.596 -0.4157  0.1969 -0.0999
 2336WAT     H1 7219   3.548   1.940   2.539 -0.1736 -2.5565  2.3428
 2336WAT     H2 7220   3.534   2.031   2.659 -0.2115  1.3992 -0.4708
 2337WAT      O 7221   4.355   3.877   3.463  0.1751 -0.0805 -0.0219
 2337WAT     H1 7222   4.287   3.873   3.531  0.8373 -2.6371  0.6242
 2337WAT     H2 7223   4.306   3.888   3.381 -0.7911  0.9475  0.6671
 2338WAT      O 7224   4.013   5.292   2.229  0.6659  0.9282  0.1808
 2338WAT     H1 7225   3.973   5.210   2.259 -1.2183  1.1295 -1.5630
 2338WAT     H2 7226   4.096   5.296   2.276 -0.1695 -0.8694  1.9882
 2339WAT      O 7227   0.708   4.455   3.753 -0.2004 -0.2422  0.1453
 2339WAT     H1 7228   0.661   4.431   3.832  0.3773 -1.6450  0.0859
 2339WAT     H2 7229   0.643   4.499   3.698 -0.8564 -0.1933  0.9596
 2340WAT      O 7230   3.596   0.943   3.863 -0.3495 -0.0501 -0.3992
 2340WAT     H1 7231   3.652   0.880   3.818  0.2043  0.0411  0.1519
 2340WAT     H2 7232   3.512   0.898   3.873  0.2462 -0.9635  0.6047
 2341WAT      O 7233   0.941   2.254   1.255  0.0779  0.0167  0.0282
 2341WAT     H1 7234   1.028   2.291   1.245  0.2935 -0.8330 -1.4961
 2341WAT     H2 7235   0.897   2.271   1.172 -1.0576  0.0043  0.5948
 2342WAT      O 7236   0.393   4.591   3.299 -0.6499 -0.2644  0.3471
 2342WAT     H1 7237   0.299   4.609   3.301 -0.2412  2.1885  1.3976
 2342WAT     H2 7238   0.404   4.515   3.355 -1.9105  0.1387  1.1915
 2343WAT      O 7239   3.371   5.109   3.511  0.2431  0.8519  0.1980
 2343WAT     H1 7240   3.466   5.115   3.509  0.3397 -0.4417 -0.6621
 2343WAT     H2 7241   3.345   5.102   3.419 -0.6953  1.3340  0.4105
 2344WAT      O 7242   3.288   2.131   1.341 -0.1997 -1.1005 -0.3490
 2344WAT     H1 7243   3.357   2.107   1.279  0.5646 -0.4884  0.2526
 2344WAT     H2 7244   3.332   2.135   1.426 -0.6390  0.8121 -0.1772
 2345WAT      O 7245   0.821   3.119   4.042  0.1470 -0.1000  0.3371
 2345WAT     H1 7246   0.914   3.098   4.055 -0.4064 -1.6075  2.4633
 2345WAT     H2 7247   0.776   3.036   4.055 -1.5040  0.4811 -1.2447
 2346WAT      O 7248   1.009   3.985   2.916 -0.0410  0.2816 -0.4452
 2346WAT     H1 7249   1.012   4.024   3.004 -1.5727 -1.0593  0.2527
 2346WAT     H2 7250   1.094   3.943   2.905 -0.0685 -0.0843  0.6651
 2347WAT      O 7251   1.169   3.900   5.109 -0.3876  0.5930 -0.6402
 2347WAT     H1 7252   1.173   3.968   5.177  0.4421  2.8177 -2.7601
 2347WAT     H2 7253   1.102   3.931   5.048 -0.9064 -1.1959 -1.0334
 2348WAT      O 7254   4.502   1.287   4.280  0.3003  0.4179  0.4712
 2348WAT     H1 7255   4.478   1.363   4.228 -0.6624  1.3072  2.1168
 2348WAT     H2 7256   4.596   1.295   4.294  0.2695  1.0910  0.3062
 2349WAT      O 7257   3.432   2.200   0.515 -0.6752 -0.0474  0.1670
 2349WAT     H1 7258   3.491   2.233   0.583 -0.1168  2.1047 -1.2505
 2349WAT     H2 7259   3.488   2.187   0.439 -1.6899  0.1009 -0.6294
 2350WAT      O 7260   1.532   3.213   0.479  0.1241  0.3826  0.1421
 2350WAT     H1 7261   1.517   3.126   0.516  0.9174 -0.4636 -1.4066
 2350WAT     H2 7262   1.573   3.263   0.550 -1.5098 -0.0634  1.4705
 2351WAT      O 7263   2.182   1.453   3.359  0.0108 -0.2687  0.7619
 2351WAT     H1 7264   2.141   1.470   3.443  0.6763 -1.0059  1.2511
 2351WAT     H2 7265   2.275   1.469   3.374 -0.0697  1.5655 -0.3750
 2352WAT      O 7266   0.857   1.429   3.339 -0.1763  0.5407 -0.5044
 2352WAT     H1 7267   0.817   1.516   3.331 -1.7669 -0.0688  0.4068
 2352WAT     H2 7268   0.812   1.388   3.413  1.2129 -0.7301 -0.2975
 2353WAT      O 7269   2.001   2.140   4.361  0.3132 -0.5525 -0.0721
 2353WAT     H1 7270   1.908   2.127   4.378  0.4790 -1.0795  0.4345
 2353WAT     H2 7271   2.043   2.131   4.447  0.8134 -0.1364 -0.2662
 2354WAT      O 7272   2.625   4.042   1.050 -0.3548  0.3618  0.3233
 2354WAT     H1 7273   2.540   4.021   1.089  0.0910 -0.8023  0.7296
 2354WAT     H2 7274   2.669   4.095   1.116 -2.3208  4.8457 -1.5680
 2355WAT      O 7275   4.646   0.980   3.869  0.2604  0.1498 -0.0379
 2355WAT     H1 7276   4.719   0.919   3.858  0.5193  0.7093 -1.9283
 2355WAT     H2 7277   4.653   1.038   3.793 -2.0151  0.3869 -0.1319
 2356WAT      O 7278   1.215   3.027   0.982 -0.5653 -0.3644 -0.5303
 2356WAT     H1 7279   1.187   2.943   0.945  2.0234 -2.1983  1.2719
 2356WAT     H2 7280   1.283   3.058   0.922 -0.5408 -0.3046 -0.4711
 2357WAT      O 7281   1.282   1.361   4.989 -0.9459 -0.1791 -0.4212
 2357WAT     H1 7282   1.253   1.422   4.921 -0.2940 -0.3930 -0.9008
 2357WAT     H2 7283   1.314   1.285   4.940 -0.0237 -0.1375  0.1021
 2358WAT      O 7284   0.596   5.638   2.783 -0.2981 -0.0744 -0.0593
 2358WAT     H1 7285   0.588   5.607   2.873  0.3849 -1.1091 -0.3371
 2358WAT     H2 7286   0.512   5.679   2.764 -0.6497 -0.3504  0.8546
 2359WAT      O 7287   0.509   0.074   2.280  0.8941  0.2071  0.5670
 2359WAT     H1 7288   0.437   0.093   2.340  0.7641 -0.2334  0.5574
 2359WAT     H2 7289   0.588   0.100   2.329  0.7851 -0.0849  0.9108
 2360WAT      O 7290   2.105   4.805   1.506 -0.3158 -0.3101 -0.0115
 2360WAT     H1 7291   2.068   4.888   1.537 -0.2145 -0.1016 -0.4432
 2360WAT     H2 7292   2.100   4.747   1.582 -0.2381  0.1397  0.3438
 2361WAT      O 7293   3.492   0.613   2.755 -0.1540 -0.0757  0.4151
 2361WAT     H1 7294   3.467   0.670   2.829 -1.0622 -0.4003  0.3753
 2361WAT     H2 7295   3.415   0.613   2.699 -0.4640 -1.9247  0.7723
 2362WAT      O 7296   1.873   0.452   4.036 -0.3003 -0.0397 -0.2213
 2362WAT     H1 7297   1.799   0.494   4.078 -0.8535 -0.9804 -0.2191
 2362WAT     H2 7298   1.858   0.464   3.942 -0.5213 -0.3237 -0.2242
 2363WAT      O 7299   3.335   3.244   4.313  0.1726 -0.5399 -0.4061
 2363WAT     H1 7300   3.279   3.310   4.353  0.0941 -1.6982  1.5426
 2363WAT     H2 7301   3.407   3.293   4.275 -0.6813  0.7630 -0.3953
 2364WAT      O 7302   2.644   2.499   4.173  0.4912 -0.3342  0.5082
 2364WAT     H1 7303   2.711   2.440   4.208 -1.9435 -3.6087  0.1540
 2364WAT     H2 7304   2.622   2.556   4.246  1.5925 -1.1929  1.5498
 2365WAT      O 7305   4.048   4.278   4.683  0.0565 -0.0631 -0.2778
 2365WAT     H1 7306   4.116   4.221   4.720  1.1179  1.2411 -0.1398
 2365WAT     H2 7307   4.092   4.321   4.609 -0.4799  1.1483  0.0991
 2366WAT      O 7308   4.635   5.575   3.324  0.0952  0.7272 -0.0454
 2366WAT     H1 7309   4.575   5.505   3.298  1.1572 -0.6109  0.9279
 2366WAT     H2 7310   4.662   5.615   3.241 -2.0637  1.3640 -0.5083
 2367WAT      O 7311   2.128   1.769   5.085  0.2057  0.2128  0.1360
 2367WAT     H1 7312   2.045   1.818   5.086 -0.1987 -0.1831 -3.2396
 2367WAT     H2 7313   2.101   1.677   5.087  0.6092  0.0890 -0.1587
 2368WAT      O 7314   0.906   0.738   3.663 -0.1200  0.0392  0.3583
 2368WAT     H1 7315   0.881   0.803   3.729 -2.1604  0.8508 -1.1027
 2368WAT     H2 7316   1.000   0.727   3.676 -0.0814  1.7029  2.0452
 2369WAT      O 7317   4.367   3.777   0.595 -0.3878 -0.7546 -0.1882
 2369WAT     H1 7318   4.371   3.681   0.598  1.0018 -0.7372 -0.8391
 2369WAT     H2 7319   4.421   3.806   0.668  0.4628 -0.4783 -0.9100
 2370WAT      O 7320   1.855   2.223   3.795  0.1358 -0.0330 -0.2978
 2370WAT     H1 7321   1.893   2.135   3.797 -0.4581 -0.3267 -1.3600
 2370WAT     H2 7322   1.869   2.257   3.884  1.8765 -0.5397 -0.3424
 2371WAT      O 7323   2.198   3.730   2.483  0.1017  0.7005  0.0552
 2371WAT     H1 7324   2.167   3.685   2.404 -1.8735  0.6101  0.8177
 2371WAT     H2 7325   2.285   3.694   2.499  1.0375  1.5506 -2.6887
 2372WAT      O 7326   0.605   3.690   4.273 -0.4391  0.1487  0.7335
 2372WAT     H1 7327   0.621   3.776   4.235  0.7591 -0.8352 -1.2144
 2372WAT     H2 7328   0.683   3.671   4.325 -0.8341  0.3432  1.4100
 2373WAT      O 7329   3.506   2.652   5.594  0.1252  1.1802 -0.2420
 2373WAT     H1 7330   3.534   2.585   5.656  0.3966  2.1674  0.7285
 2373WAT     H2 7331   3.585   2.676   5.546  0.6411  2.6608  1.2419
 2374WAT      O 7332   0.823   1.846   0.517  0.1620 -0.6038  0.2554
 2374WAT     H1 7333   0.751   1.820   0.574  0.8457 -0.9816  0.9712
 2374WAT     H2 7334   0.838   1.770   0.461 -1.3274  0.2053 -1.3312
 2375WAT      O 7335   4.279   5.532   3.485 -0.1103  0.3797 -0.0487
 2375WAT     H1 7336   4.351   5.485   3.443 -0.6563 -0.6059  0.0757
 2375WAT     H2 7337   4.201   5.506   3.436 -0.7387 -0.7015  1.4441
 2376WAT      O 7338   1.581   2.022   5.452  0.1661  0.0050  0.2343
 2376WAT     H1 7339   1.511   1.995   5.511 -0.8590  0.2694 -0.8273
 2376WAT     H2 7340   1.547   2.101   5.409  0.5234 -0.6662 -1.3305
 2377WAT      O 7341   3.887   1.953   2.466 -0.2535 -0.3956  0.0781
 2377WAT     H1 7342   3.798   1.948   2.501 -0.7671  0.7570 -0.9886
 2377WAT     H2 7343   3.943   1.951   2.543 -1.1496 -1.7086  0.7469
 2378WAT      O 7344   2.813   1.592   3.369 -0.5933 -0.5397 -0.0329
 2378WAT     H1 7345   2.848   1.503   3.363 -0.7863 -0.5793 -0.6422
 2378WAT     H2 7346   2.883   1.643   3.410  0.5295 -0.4444 -1.9511
 2379WAT      O 7347   0.361   2.001   1.863  0.1873 -0.0387  0.5990
 2379WAT     H1 7348   0.330   1.921   1.905  1.7330 -0.1213  1.6907
 2379WAT     H2 7349   0.317   2.072   1.910  0.9720 -0.1805  1.6002
 2380WAT      O 7350   1.750   1.626   2.820  0.3552  0.2276 -0.5862
 2380WAT     H1 7351   1.823   1.622   2.759 -0.9905  0.7441 -2.3110
 2380WAT     H2 7352   1.684   1.567   2.783 -0.4660  0.4695  0.4194
 2381WAT      O 7353   1.683   2.332   4.248  0.2816  0.4984 -0.0958
 2381WAT     H1 7354   1.619   2.274   4.291  0.7623 -0.3384 -0.5031
 2381WAT     H2 7355   1.737   2.365   4.320  0.6147 -0.3193  0.0359
 2382WAT      O 7356   4.059   0.211   4.069 -0.1411  0.2989  0.2580
 2382WAT     H1 7357   4.092   0.207   3.980 -1.1493 -2.2869 -0.0822
 2382WAT     H2 7358   4.128   0.170   4.122  0.3132  1.5275  0.6382
 2383WAT      O 7359   4.524   1.860   0.685  0.1736 -0.1630 -0.4282
 2383WAT     H1 7360   4.491   1.929   0.743  0.7854  0.3812 -0.7242
 2383WAT     H2 7361   4.610   1.890   0.658  0.7315 -1.3476 -0.0492
 2384WAT      O 7362   2.039   2.522   0.366  0.2170 -0.5403  0.1068
 2384WAT     H1 7363   2.014   2.611   0.389 -0.3583 -0.9372  1.0729
 2384WAT     H2 7364   2.132   2.517   0.391  0.1021 -0.3814  0.5813
 2385WAT      O 7365   4.392   2.122   0.789  0.2745  0.0201 -0.4087
 2385WAT     H1 7366   4.467   2.170   0.826  0.1393  0.5043 -0.7616
 2385WAT     H2 7367   4.367   2.172   0.712 -1.5264  0.8428  0.6675
 2386WAT      O 7368   1.330   0.649   1.434  0.3190 -0.3901  0.3567
 2386WAT     H1 7369   1.383   0.730   1.434 -0.9387  0.5892 -2.7099
 2386WAT     H2 7370   1.385   0.585   1.479  1.5922  1.9983  2.4972
 2387WAT      O 7371   3.298   4.596   2.794  0.0116 -0.1336 -0.2775
 2387WAT     H1 7372   3.365   4.653   2.830 -0.7901  1.0299 -0.5610
 2387WAT     H2 7373   3.276   4.635   2.709  0.3673 -1.6148 -1.0729
 2388WAT      O 7374   2.046   0.934   1.064  0.2466  0.0039 -0.2298
 2388WAT     H1 7375   1.958   0.962   1.039  0.4091 -0.5985 -1.6265
 2388WAT     H2 7376   2.036   0.896   1.151 -0.8829 -0.0364 -0.3633
 2389WAT      O 7377   1.589   2.291   5.317 -0.3553  0.5898 -0.2319
 2389WAT     H1 7378   1.679   2.263   5.302 -0.2369  0.6207  0.4075
 2389WAT     H2 7379   1.584   2.379   5.279 -0.7265 -0.2371 -2.2500
 2390WAT      O 7380   2.734   1.847   4.762  0.0036 -0.3377  0.0808
 2390WAT     H1 7381   2.760   1.828   4.853  1.1337 -2.2275 -0.5776
 2390WAT     H2 7382   2.648   1.807   4.753 -0.1451 -0.0771  0.3482
 2391WAT      O 7383   2.680   3.999   4.899  0.4028  0.0643 -0.5229
 2391WAT     H1 7384   2.747   4.060   4.870 -0.2107  0.9881 -0.0676
 2391WAT     H2 7385   2.597   4.042   4.876 -0.0385 -0.6945 -0.3875
 2392WAT      O 7386   2.356   0.340   2.935  0.1648 -0.1037 -0.1810
 2392WAT     H1 7387   2.416   0.401   2.977 -0.7520  1.3661 -0.9166
 2392WAT     H2 7388   2.310   0.296   3.007  0.1775  0.7592  0.3608
 2393WAT      O 7389   2.558   0.750   3.020 -0.1699 -0.1809 -0.1303
 2393WAT     H1 7390   2.609   0.737   2.940  2.4598 -2.2421  1.6701
 2393WAT     H2 7391   2.583   0.837   3.050  0.1698 -0.0780 -0.6852
 2394WAT      O 7392   1.578   1.616   0.429 -0.0054  0.0081  0.0685
 2394WAT     H1 7393   1.488   1.585   0.429 -0.1470  0.3093 -1.9026
 2394WAT     H2 7394   1.630   1.540   0.457 -0.8038 -0.2797  0.8273
 2395WAT      O 7395   4.358   0.052   2.654  0.3126  0.1165  0.1950
 2395WAT     H1 7396   4.290   0.032   2.590  0.2019 -0.9615  0.6264
 2395WAT     H2 7397   4.311   0.088   2.729  0.3382  0.4430  0.0547
 2396WAT      O 7398   4.483   0.786   2.756 -0.2115  0.0337 -0.0399
 2396WAT     H1 7399   4.533   0.711   2.786  0.2658  0.5641  0.5281
 2396WAT     H2 7400   4.409   0.749   2.707  0.1161 -0.7850  0.0845
 2397WAT      O 7401   3.198   1.809   0.043  0.5189 -0.5658 -0.3340
 2397WAT     H1 7402   3.175   1.855   0.124  2.2522  0.2227 -0.2323
 2397WAT     H2 7403   3.176   1.718   0.060  2.3416 -0.7044  1.7006
 2398WAT      O 7404   2.858   1.079   3.198 -0.0538 -0.1121  0.5678
 2398WAT     H1 7405   2.897   0.996   3.227  1.2365 -0.1280 -1.0718
 2398WAT     H2 7406   2.807   1.057   3.121  0.5601  0.6430 -0.0763
 2399WAT      O 7407   0.263   2.891   5.500 -0.0287 -0.8959 -0.0418
 2399WAT     H1 7408   0.353   2.859   5.495 -0.5494 -2.4996  0.4665
 2399WAT     H2 7409   0.213   2.829   5.447 -0.8204  0.1071 -0.4939
 2400WAT      O 7410   2.380   3.066   2.439 -0.5266 -0.0080  0.1422
 2400WAT     H1 7411   2.352   3.114   2.517  1.1900 -1.7574  1.9527
 2400WAT     H2 7412   2.306   3.074   2.379 -0.7463  4.0292  0.6152
 2401WAT      O 7413   1.356   3.180   3.114  0.1147  0.2321  0.1167
 2401WAT     H1 7414   1.302   3.134   3.050 -0.6307  0.6379  0.4357
 2401WAT     H2 7415   1.398   3.111   3.164 -1.4577 -0.1535  0.9896
 2402WAT      O 7416   3.816   1.708   5.241 -0.3567  0.1404  0.6765
 2402WAT     H1 7417   3.824   1.621   5.279 -2.8008 -1.1261 -1.3745
 2402WAT     H2 7418   3.818   1.694   5.146  0.0500  2.4315  0.2781
 2403WAT      O 7419   2.303   5.507   2.860 -0.3556  0.1718 -0.0576
 2403WAT     H1 7420   2.308   5.541   2.950  0.0077 -0.9747  0.3739
 2403WAT     H2 7421   2.227   5.448   2.862 -0.3935  0.2072 -0.5271
 2404WAT      O 7422   3.778   3.579   5.184 -0.3109 -0.5422 -0.1816
 2404WAT     H1 7423   3.739   3.654   5.229 -1.1080 -0.2952 -1.2444
 2404WAT     H2 7424   3.815   3.526   5.254  0.0645  0.7280  0.6066
 2405WAT      O 7425   4.509   3.312   2.583  0.7679  0.3718  0.0391
 2405WAT     H1 7426   4.552   3.392   2.612 -1.1518  1.8604 -0.9426
 2405WAT     H2 7427   4.416   3.326   2.602  0.1803 -0.9414 -1.5488
 2406WAT      O 7428   2.059   0.864   4.550 -0.1479  0.7978  0.1806
 2406WAT     H1 7429   1.992   0.796   4.555 -0.7606  1.4514  1.0280
 2406WAT     H2 7430   2.134   0.820   4.511 -0.8046 -0.1507 -0.0478
 2407WAT      O 7431   4.216   2.375   3.725  0.1418 -0.3002  0.3470
 2407WAT     H1 7432   4.270   2.452   3.709  1.4670 -1.2500 -0.0141
 2407WAT     H2 7433   4.183   2.387   3.814 -0.8078  1.3095 -0.2007
 2408WAT      O 7434   1.224   3.922   1.204  0.3755  0.0625  0.1020
 2408WAT     H1 7435   1.153   3.895   1.147  0.1171  2.2803 -0.7123
 2408WAT     H2 7436   1.297   3.864   1.180  0.1227  0.5863 -2.1434
 2409WAT      O 7437   3.016   0.181   3.750  0.8296 -0.0644  0.3894
 2409WAT     H1 7438   3.096   0.231   3.765  0.5516  1.1680 -1.8879
 2409WAT     H2 7439   3.008   0.176   3.655 -1.1441 -1.2731  0.5643
 2410WAT      O 7440   1.657   1.050   2.989 -0.5351 -0.5456  0.7615
 2410WAT     H1 7441   1.738   1.041   3.038 -0.7062  0.4734  1.2637
 2410WAT     H2 7442   1.616   1.129   3.024 -1.2269 -0.4412 -0.2211
 2411WAT      O 7443   2.766   5.059   3.156  0.0215  0.1489  0.2775
 2411WAT     H1 7444   2.712   5.061   3.235 -1.7670 -0.2650 -0.8676
 2411WAT     H2 7445   2.851   5.091   3.184 -0.8152  0.8491  2.1821
 2412WAT      O 7446   2.727   5.439   1.770 -0.1721 -0.0334  0.4536
 2412WAT     H1 7447   2.794   5.501   1.799  0.0884  0.2025 -0.6203
 2412WAT     H2 7448   2.644   5.482   1.792 -0.0020  0.9139 -0.6563
 2413WAT      O 7449   3.597   2.494   2.781 -0.6159 -0.4528 -0.1245
 2413WAT     H1 7450   3.591   2.500   2.686  1.5507 -1.0087 -0.3467
 2413WAT     H2 7451   3.587   2.401   2.800  1.8532 -0.7844 -0.1374
 2414WAT      O 7452   3.980   3.483   5.011  0.0658 -0.4814  0.6762
 2414WAT     H1 7453   3.921   3.408   5.008 -0.3968 -0.1522 -2.4393
 2414WAT     H2 7454   3.926   3.554   5.045 -1.0185 -0.4963 -0.8899
 2415WAT      O 7455   4.782   2.225   2.481  0.2436 -0.2331 -0.1594
 2415WAT     H1 7456   4.720   2.295   2.463 -1.4714 -1.5890  0.2058
 2415WAT     H2 7457   4.790   2.223   2.576 -1.2950 -1.7529 -0.0072
 2416WAT      O 7458   0.922   0.185   2.039  0.1204 -0.0567 -0.0532
 2416WAT     H1 7459   0.846   0.243   2.047 -1.5554 -2.0281 -0.6088
 2416WAT     H2 7460   0.921   0.159   1.946  0.8784 -0.8572  0.1543
 2417WAT      O 7461   0.529   2.951   4.826 -0.1679  0.1668  0.0910
 2417WAT     H1 7462   0.530   2.906   4.741 -1.6233  1.1260 -0.4750
 2417WAT     H2 7463   0.439   2.983   4.835 -1.1325 -2.8766  3.6265
 2418WAT      O 7464   3.145   4.611   1.519  0.2435 -0.3507 -0.3472
 2418WAT     H1 7465   3.138   4.694   1.565  1.0493 -0.0773 -0.7115
 2418WAT     H2 7466   3.067   4.562   1.546 -0.4189  0.6528 -0.4088
 2419WAT      O 7467   0.584   1.004   3.180 -0.3965  0.0942 -0.1777
 2419WAT     H1 7468   0.553   1.011   3.271 -1.2392 -2.9956 -0.0841
 2419WAT     H2 7469   0.505   1.018   3.127 -0.0729  1.0981 -0.3949
 2420WAT      O 7470   4.633   2.639   4.674  0.0798 -0.2795  0.2779
 2420WAT     H1 7471   4.553   2.617   4.722 -0.0920 -1.2028 -0.4068
 2420WAT     H2 7472   4.704   2.620   4.735 -0.2330  3.1317  1.9279
 2421WAT      O 7473   0.865   2.929   0.165  0.0910  0.3920 -0.8181
 2421WAT     H1 7474   0.951   2.972   0.165  0.3194 -0.0005  0.6331
 2421WAT     H2 7475   0.880   2.845   0.207 -1.5954  1.7550  3.0373
 2422WAT      O 7476   1.283   2.832   1.184  0.0706 -0.7198 -0.0386
 2422WAT     H1 7477   1.364   2.781   1.184 -0.1738 -1.1147  0.7686
 2422WAT     H2 7478   1.296   2.897   1.114  1.6106  0.0444  0.8989
 2423WAT      O 7479   4.463   2.042   0.200  0.0107  0.2348  0.3556
 2423WAT     H1 7480   4.540   2.089   0.233  0.5096  0.4580 -1.0581
 2423WAT     H2 7481   4.418   2.106   0.145 -0.5424 -0.2516  0.2323
 2424WAT      O 7482   3.886   0.399   3.915  0.3099  0.1533 -0.3552
 2424WAT     H1 7483   3.893   0.336   3.986  1.4665  0.8963  0.2359
 2424WAT     H2 7484   3.943   0.472   3.942 -0.5894  1.2273 -1.2359
 2425WAT      O 7485   1.398   1.461   1.449 -0.8787 -0.1371  0.4221
 2425WAT     H1 7486   1.357   1.383   1.412  1.0054 -0.9368 -0.0715
 2425WAT     H2 7487   1.469   1.427   1.504 -1.5219  1.1567  2.1782
 2426WAT      O 7488   0.550   2.770   4.014 -0.1542  0.3140 -0.5721
 2426WAT     H1 7489   0.543   2.687   3.967  0.2005  1.1302 -2.1388
 2426WAT     H2 7490   0.461   2.805   4.013 -0.3242 -0.0708  0.1775
 2427WAT      O 7491   2.874   0.913   2.503 -0.1108  0.1977 -0.2602
 2427WAT     H1 7492   2.878   0.990   2.559  0.8112 -1.5838  2.2801
 2427WAT     H2 7493   2.780   0.895   2.494 -0.3055  1.2063 -0.3622
 2428WAT      O 7494   2.642   1.542   4.675  0.2249 -0.2398  0.8068
 2428WAT     H1 7495   2.647   1.547   4.770 -0.6658 -1.0422  0.9189
 2428WAT     H2 7496   2.551   1.517   4.658  0.1098  0.8454 -0.3005
 2429WAT      O 7497   3.641   2.217   2.869  0.3871  0.2086 -0.2171
 2429WAT     H1 7498   3.698   2.231   2.793 -0.4648  2.7443 -0.4787
 2429WAT     H2 7499   3.700   2.188   2.938  1.4295 -0.5563 -1.3836
 2430WAT      O 7500   4.964   1.213   3.913 -0.4957  0.5440 -0.3285
 2430WAT     H1 7501   4.890   1.243   3.965 -1.1258  2.5657 -2.2198
 2430WAT     H2 7502   4.943   1.241   3.824  1.4855 -0.9014 -1.3276
 2431WAT      O 7503   2.085   1.525   4.468 -0.0783 -0.4605 -0.2458
 2431WAT     H1 7504   2.106   1.433   4.449 -1.1053 -0.8904  0.5863
 2431WAT     H2 7505   2.030   1.521   4.546  1.4513  0.9998  1.0060
 2432WAT      O 7506   4.248   4.257   1.173 -0.0486  0.0424 -0.0231
 2432WAT     H1 7507   4.167   4.256   1.225 -0.9065  3.2282 -1.0529
 2432WAT     H2 7508   4.221   4.224   1.087  0.6520 -2.2800  0.5927
 2433WAT      O 7509   2.546   1.733   4.138 -0.6600 -0.8393  0.3359
 2433WAT     H1 7510   2.520   1.791   4.066  1.6382 -0.5450 -0.3375
 2433WAT     H2 7511   2.500   1.651   4.120 -1.8778 -0.0716 -0.1896
 2434WAT      O 7512   4.629   1.899   2.640  0.4732  0.1754 -0.2727
 2434WAT     H1 7513   4.552   1.949   2.611  0.6408  0.4667 -0.2183
 2434WAT     H2 7514   4.628   1.907   2.736  2.8836  3.7480 -0.3488
 2435WAT      O 7515   3.823   2.270   2.652  0.1152 -0.6918  0.4017
 2435WAT     H1 7516   3.904   2.222   2.635  0.3082 -0.7306  1.3848
 2435WAT     H2 7517   3.798   2.307   2.567  1.4492 -0.2373  0.1904
 2436WAT      O 7518   1.669   1.543   2.152  0.0477 -0.5261 -0.1725
 2436WAT     H1 7519   1.574   1.540   2.163 -0.1893 -0.3914 -1.8646
 2436WAT     H2 7520   1.683   1.609   2.084  1.2792 -1.1784 -0.5917
 2437WAT      O 7521   3.657   4.377   4.164 -0.2361  0.0338  0.2385
 2437WAT     H1 7522   3.719   4.306   4.184  0.2064  0.2701 -0.2581
 2437WAT     H2 7523   3.587   4.366   4.228 -0.1478 -0.8188  0.1984
 2438WAT      O 7524   4.590   0.357   2.353  0.4831 -0.1647  0.0494
 2438WAT     H1 7525   4.662   0.350   2.291 -0.7642 -3.1258 -1.2215
 2438WAT     H2 7526   4.579   0.269   2.388 -0.7650  0.8015  2.3307
 2439WAT      O 7527   1.068   2.581   2.970 -0.1246  0.3513  0.1351
 2439WAT     H1 7528   1.146   2.546   3.012 -0.5597  0.6579  1.2393
 2439WAT     H2 7529   1.079   2.676   2.975 -0.5735  0.3961  0.3316
 2440WAT      O 7530   1.133   2.058   5.268 -0.3305  0.3804 -0.0596
 2440WAT     H1 7531   1.225   2.082   5.255 -0.1464 -0.2936 -0.0500
 2440WAT     H2 7532   1.116   1.991   5.202 -0.1569 -1.1111  1.3290
 2441WAT      O 7533   3.852   2.444   3.094  0.0533  0.3332 -0.2384
 2441WAT     H1 7534   3.778   2.429   3.153  1.3420 -0.2108  1.3153
 2441WAT     H2 7535   3.815   2.437   3.006 -1.9713  1.3105  0.4790
 2442WAT      O 7536   4.370   3.442   2.215  0.5393 -0.4979 -0.5641
 2442WAT     H1 7537   4.445   3.455   2.157  2.0924  0.8204  1.5748
 2442WAT     H2 7538   4.376   3.349   2.240  1.3387 -0.4707 -0.6069
 2443WAT      O 7539   4.511   3.315   1.493 -0.4543  0.5843 -0.1686
 2443WAT     H1 7540   4.437   3.284   1.544  1.4329 -3.1241  0.6498
 2443WAT     H2 7541   4.555   3.377   1.550 -0.2998 -0.8932  1.3914
 2444WAT      O 7542   3.620   0.325   1.974 -0.4034 -0.4683 -0.1073
 2444WAT     H1 7543   3.591   0.365   1.892 -1.2767  1.2977  0.9935
 2444WAT     H2 7544   3.631   0.232   1.954 -0.3071 -0.0279 -2.2729
 2445WAT      O 7545   2.254   0.744   4.342 -0.0012 -0.5982 -0.2923
 2445WAT     H1 7546   2.196   0.693   4.285  0.0768 -0.0105 -0.9185
 2445WAT     H2 7547   2.342   0.727   4.308  0.1305 -0.9161  0.1977
 2446WAT      O 7548   2.292   4.073   3.660 -0.4721  0.5704  0.0708
 2446WAT     H1 7549   2.326   4.111   3.741  3.1036  0.8502 -1.3799
 2446WAT     H2 7550   2.350   4.000   3.641 -3.0600 -1.4354 -0.7937
 2447WAT      O 7551   4.743   4.616   3.913 -0.7861  0.1255  0.2806
 2447WAT     H1 7552   4.838   4.606   3.919 -0.7118  0.5848 -0.1351
 2447WAT     H2 7553   4.710   4.526   3.906 -0.4223 -0.0638  0.9437
 2448WAT      O 7554   0.723   2.450   0.997  0.5312  0.2960 -0.3307
 2448WAT     H1 7555   0.808   2.494   0.991  1.0038 -0.4441  0.6184
 2448WAT     H2 7556   0.660   2.520   1.008  1.3260  0.7535  1.7303
 2449WAT      O 7557   1.718   2.863   2.085  0.1616 -0.3671 -0.3227
 2449WAT     H1 7558   1.676   2.798   2.029 -1.1735 -0.8609  1.1588
 2449WAT     H2 7559   1.717   2.943   2.032 -2.0418 -0.5416 -0.6572
 2450WAT      O 7560   0.037   1.515   2.578  0.6722 -0.1851  0.5240
 2450WAT     H1 7561   0.069   1.428   2.600  0.5417 -0.1760  0.7564
 2450WAT     H2 7562   0.112   1.573   2.589  1.0368 -0.4104 -0.6282
 2451WAT      O 7563   2.068   4.489   3.566  0.2029 -0.1215 -0.2684
 2451WAT     H1 7564   2.051   4.400   3.536  2.0982  0.1165 -2.3106
 2451WAT     H2 7565   1.984   4.521   3.597 -1.0549 -1.7907 -1.7915
 2452WAT      O 7566   0.771   0.773   1.899 -0.7763 -0.8747  0.4421
 2452WAT     H1 7567   0.776   0.816   1.984  0.8667  0.1043 -0.0895
 2452WAT     H2 7568   0.769   0.845   1.836  1.5028 -1.4874 -0.4470
 2453WAT      O 7569   3.283   2.051   3.179 -0.0614  0.5687  0.2911
 2453WAT     H1 7570   3.243   2.027   3.096  1.7390 -0.3657 -0.3315
 2453WAT     H2 7571   3.309   2.143   3.167  0.5353  0.3241 -0.3155
 2454WAT      O 7572   2.496   5.446   2.220 -0.0802  0.3549  0.3069
 2454WAT     H1 7573   2.557   5.390   2.172 -0.6030  1.4874 -1.7999
 2454WAT     H2 7574   2.479   5.519   2.161 -1.9245  1.0905  1.6453
 2455WAT      O 7575   3.201   1.043   3.891 -0.1437  0.6569  0.0351
 2455WAT     H1 7576   3.269   1.097   3.852 -1.5420  1.6037 -1.1734
 2455WAT     H2 7577   3.178   1.089   3.972  1.1633 -0.0863  0.8558
 2456WAT      O 7578   4.715   3.029   4.664 -0.6547 -0.1357 -0.1270
 2456WAT     H1 7579   4.726   3.123   4.676  3.5619 -0.3563 -0.4909
 2456WAT     H2 7580   4.664   3.000   4.740 -1.0323  2.2737  0.6067
 2457WAT      O 7581   3.818   1.751   3.191 -0.2842 -0.3181 -0.1773
 2457WAT     H1 7582   3.743   1.796   3.151  0.4152 -1.1671 -2.6651
 2457WAT     H2 7583   3.885   1.819   3.198 -1.1306  0.3852  1.8254
 2458WAT      O 7584   1.172   0.585   3.255  0.1502  0.2471  0.4334
 2458WAT     H1 7585   1.076   0.575   3.256  0.2610 -1.0355  1.1299
 2458WAT     H2 7586   1.187   0.669   3.213 -1.1723 -0.7858 -2.3945
 2459WAT      O 7587   0.081   2.962   3.941 -0.4851  0.3022  0.0564
 2459WAT     H1 7588  -0.010   2.951   3.968 -1.4342  2.5449 -1.9350
 2459WAT     H2 7589   0.100   3.055   3.954  2.5121 -0.5025  2.9837
 2460WAT      O 7590   3.403   2.119   2.765 -0.2424 -0.8107 -0.2602
 2460WAT     H1 7591   3.365   2.045   2.812 -2.7707  0.8217  0.5132
 2460WAT     H2 7592   3.469   2.154   2.825 -0.6821 -1.0669  0.3887
 2461WAT      O 7593   3.839   1.211   1.416 -0.2142  0.2274 -0.0838
 2461WAT     H1 7594   3.765   1.271   1.425 -0.1376  0.0736  1.8717
 2461WAT     H2 7595   3.802   1.133   1.373 -1.1391  0.2408  0.6626
 2462WAT      O 7596   4.662   1.297   2.268 -0.0257 -0.3142  0.4263
 2462WAT     H1 7597   4.707   1.369   2.312 -2.0800  1.2642  0.1066
 2462WAT     H2 7598   4.682   1.309   2.176  1.2232 -1.3848  0.5258
 2463WAT      O 7599   0.342   0.064   1.787  0.4825 -0.1098  0.2678
 2463WAT     H1 7600   0.370   0.150   1.820 -0.5038  0.6281 -0.7393
 2463WAT     H2 7601   0.424   0.018   1.767  1.0672  1.6542 -1.7787
 2464WAT      O 7602   3.722   2.299   3.526 -0.0221 -0.0500 -0.3478
 2464WAT     H1 7603   3.805   2.253   3.526 -2.0068 -4.1591 -2.0941
 2464WAT     H2 7604   3.695   2.301   3.618  1.2017 -0.1546  0.0295
 2465WAT      O 7605   2.370   0.946   3.174 -1.0537  0.1505 -0.1161
 2465WAT     H1 7606   2.417   1.021   3.210  0.2645  0.1442 -1.6839
 2465WAT     H2 7607   2.341   0.975   3.088 -1.4654 -0.7975 -0.3135
 2466WAT      O 7608   4.519   3.771   2.458  0.2940 -0.3146  0.0439
 2466WAT     H1 7609   4.580   3.731   2.521 -0.5589 -1.1737  0.3566
 2466WAT     H2 7610   4.496   3.855   2.497 -0.1319 -0.7855  0.8493
 2467WAT      O 7611   4.780   3.997   2.737 -0.8020  0.1600 -0.5746
 2467WAT     H1 7612   4.865   4.034   2.714 -1.4449  2.3510  0.2403
 2467WAT     H2 7613   4.718   4.043   2.681 -1.5466 -0.7219 -0.5021
 2468WAT      O 7614   1.582   0.616   3.823 -0.1155 -0.1651 -0.0548
 2468WAT     H1 7615   1.520   0.675   3.780 -0.0149 -0.3035 -0.4026
 2468WAT     H2 7616   1.535   0.534   3.833  0.4219 -0.7110 -1.5852
 2469WAT      O 7617   2.023   2.444   3.730  0.1529 -0.1801  0.1852
 2469WAT     H1 7618   1.937   2.423   3.767  0.2451 -0.0307  0.4858
 2469WAT     H2 7619   2.040   2.374   3.667 -1.3270  1.1125 -1.7657
 2470WAT      O 7620   4.701   0.611   2.001 -0.0928  0.0626 -0.1752
 2470WAT     H1 7621   4.679   0.644   1.914 -0.8542 -0.3871 -0.1646
 2470WAT     H2 7622   4.622   0.626   2.053  0.3801  0.3989  0.4657
 2471WAT      O 7623   0.529   0.035   3.888  0.1352  0.0575  0.1666
 2471WAT     H1 7624   0.523   0.045   3.793 -0.6375 -0.0499  0.1938
 2471WAT     H2 7625   0.477  -0.043   3.907  0.6455 -0.1772  0.6359
 2472WAT      O 7626   2.731   2.072   5.528  0.2038  0.3188 -0.2218
 2472WAT     H1 7627   2.640   2.066   5.558  0.6873  1.2372  1.5061
 2472WAT     H2 7628   2.723   2.109   5.439 -1.1562 -0.7979 -0.6096
 2473WAT      O 7629   2.003   5.561   4.230  0.2157  0.0942  0.7503
 2473WAT     H1 7630   2.016   5.546   4.137 -1.7564 -2.2367  0.7561
 2473WAT     H2 7631   2.091   5.573   4.265  1.1295 -0.6506 -1.1657
 2474WAT      O 7632   4.424   0.897   3.983  0.2541  0.1106 -0.9854
 2474WAT     H1 7633   4.398   0.977   4.030 -0.4777 -0.9616  0.4928
 2474WAT     H2 7634   4.503   0.923   3.936  0.6632  1.4322  0.3273
 2475WAT      O 7635   3.823   1.755   4.453 -0.0483  0.2829  0.5577
 2475WAT     H1 7636   3.744   1.760   4.507 -1.1237 -2.1345 -0.6124
 2475WAT     H2 7637   3.879   1.693   4.498 -0.0660 -0.1774 -0.0428
 2476WAT      O 7638   3.426   3.631   4.507 -0.3635  0.5940  0.9479
 2476WAT     H1 7639   3.513   3.631   4.467 -0.0419  0.3428  1.6342
 2476WAT     H2 7640   3.366   3.636   4.433  0.1940 -0.7356  0.3789
 2477WAT      O 7641   1.453   2.426   1.035  0.0157 -0.1002  0.8406
 2477WAT     H1 7642   1.502   2.353   0.999 -1.5846  0.2595 -2.5169
 2477WAT     H2 7643   1.473   2.499   0.976 -3.0836  0.4675  0.2931
 2478WAT      O 7644   4.173   3.293   1.970 -0.3413 -0.5029  0.1174
 2478WAT     H1 7645   4.174   3.244   2.053  0.1747 -1.4492 -0.4346
 2478WAT     H2 7646   4.130   3.235   1.908  0.3463 -0.3001 -0.5714
 2479WAT      O 7647   0.751   0.836   3.395  0.0206 -0.2677  0.9087
 2479WAT     H1 7648   0.835   0.860   3.434 -0.3549  0.8954  1.0584
 2479WAT     H2 7649   0.702   0.919   3.391 -0.5425 -0.6320 -0.5699
 2480WAT      O 7650   1.827   1.841   3.150  0.8536  0.2357  0.3156
 2480WAT     H1 7651   1.899   1.785   3.176  1.2251  0.2243 -0.7020
 2480WAT     H2 7652   1.842   1.859   3.057  0.1918  1.1903  0.3757
 2481WAT      O 7653   3.958   2.303   3.899 -0.1984  0.2812  0.2243
 2481WAT     H1 7654   4.046   2.297   3.937 -0.3008  1.7636  0.7560
 2481WAT     H2 7655   3.899   2.308   3.974 -0.5666  1.1604 -0.1056
 2482WAT      O 7656   2.015   0.354   2.008  0.1359 -0.0676  0.0082
 2482WAT     H1 7657   1.923   0.364   2.034 -0.6025  0.3436 -2.5027
 2482WAT     H2 7658   2.023   0.263   1.981  0.1083  0.2227 -1.0009
 2483WAT      O 7659   2.892   2.084   4.776  0.6084 -0.1844  0.4699
 2483WAT     H1 7660   2.946   2.108   4.700 -1.4013  0.0369 -0.9828
 2483WAT     H2 7661   2.862   1.995   4.756  0.7678 -0.4624  1.4511
 2484WAT      O 7662   0.435   5.515   3.028  0.4850  0.0329  0.1624
 2484WAT     H1 7663   0.381   5.441   3.001  0.0940 -0.5776  2.4656
 2484WAT     H2 7664   0.412   5.585   2.967 -0.5921 -1.1333 -0.8170
 2485WAT      O 7665   4.146   1.462   3.910  0.1531  0.0012  0.7907
 2485WAT     H1 7666   4.144   1.375   3.869  0.9328  1.4859 -2.8476
 2485WAT     H2 7667   4.230   1.499   3.882  0.0953  1.7339  2.7156
 2486WAT      O 7668   2.134   2.299   2.910  0.4158 -0.1259 -0.4734
 2486WAT     H1 7669   2.040   2.286   2.926  0.7204 -0.6789  1.0742
 2486WAT     H2 7670   2.156   2.378   2.960  0.7369  0.1492 -1.0371
 2487WAT      O 7671   2.432   0.506   3.517 -0.0723  0.3982  0.0222
 2487WAT     H1 7672   2.367   0.437   3.527  0.6520 -0.4041 -0.6743
 2487WAT     H2 7673   2.389   0.585   3.550 -1.4443 -0.0925 -0.5403
 2488WAT      O 7674   2.595   4.678   3.191 -0.1425  0.2952 -0.5177
 2488WAT     H1 7675   2.669   4.677   3.130 -0.1235 -0.5715 -0.5032
 2488WAT     H2 7676   2.615   4.748   3.253  0.3883  0.4444 -0.8543
 2489WAT      O 7677   2.642   2.312   2.862 -0.3906 -0.2782 -0.2934
 2489WAT     H1 7678   2.725   2.360   2.863  0.0588 -1.0415  0.1115
 2489WAT     H2 7679   2.578   2.375   2.895  0.0933  0.1953 -0.2357
 2490WAT      O 7680   2.522   0.148   3.675 -0.1585  0.3788  0.4246
 2490WAT     H1 7681   2.573   0.221   3.710 -1.3360  1.1224  0.6300
 2490WAT     H2 7682   2.502   0.094   3.751 -0.9530  0.9018  0.6057
 2491WAT      O 7683   3.900   3.603   3.360 -0.6728 -0.6314 -0.1031
 2491WAT     H1 7684   3.989   3.589   3.392 -0.5945 -2.3867 -0.9821
 2491WAT     H2 7685   3.898   3.696   3.337  0.1273  0.0332  2.2453
 2492WAT      O 7686   2.047   0.125   1.707 -0.0991 -0.0190  0.1652
 2492WAT     H1 7687   1.998   0.092   1.632 -0.7852 -3.2593  1.8613
 2492WAT     H2 7688   1.984   0.127   1.779  1.3093 -0.4364  1.4802
 2493WAT      O 7689   3.029   5.170   3.939  0.0060 -0.0628  0.6243
 2493WAT     H1 7690   2.945   5.208   3.964  0.1961  0.2083  0.8653
 2493WAT     H2 7691   3.047   5.208   3.853 -0.6318 -0.9672  0.0817
 2494WAT      O 7692   0.805   1.661   0.960 -0.1510  0.3830 -0.8662
 2494WAT     H1 7693   0.805   1.725   1.031  1.9010 -0.9715  0.4771
 2494WAT     H2 7694   0.725   1.611   0.972 -0.3537  0.8696 -0.1625
 2495WAT      O 7695   3.779   1.509   2.882  0.2807 -0.5038 -0.0499
 2495WAT     H1 7696   3.752   1.594   2.848 -0.4530  0.0547  1.7752
 2495WAT     H2 7697   3.730   1.445   2.831  0.3476  0.2014 -1.0109
 2496WAT      O 7698   2.526   0.473   2.167  0.1049  0.5236 -0.2898
 2496WAT     H1 7699   2.614   0.449   2.195 -1.2835 -3.1054  1.6907
 2496WAT     H2 7700   2.489   0.521   2.241 -0.4069 -0.4205  0.0897
 2497WAT      O 7701   0.541   4.978   3.429 -0.5849 -0.2729 -0.0097
 2497WAT     H1 7702   0.528   4.978   3.335  0.4310 -2.2873 -0.2016
 2497WAT     H2 7703   0.634   5.000   3.441 -0.4222 -1.1381  0.4282
 2498WAT      O 7704   3.796   3.167   2.119  0.0414 -0.0056  0.5961
 2498WAT     H1 7705   3.762   3.078   2.107 -1.5865  0.6678 -0.1885
 2498WAT     H2 7706   3.845   3.164   2.201  1.7877 -2.1063 -0.4434
 2499WAT      O 7707   2.484   1.945   1.504  0.5782  0.1095  0.1820
 2499WAT     H1 7708   2.473   1.896   1.423  1.5747  1.3428 -0.7443
 2499WAT     H2 7709   2.396   1.971   1.529  0.0008 -2.3292  0.8484
 2500WAT      O 7710   4.591   1.334   4.578  0.6270 -0.8021 -0.2791
 2500WAT     H1 7711   4.581   1.253   4.628 -1.8469 -0.1144  0.4943
 2500WAT     H2 7712   4.543   1.319   4.497 -2.8904  0.8661  1.2717
 2501WAT      O 7713   2.698   1.826   3.255  1.1822  0.0750 -0.3991
 2501WAT     H1 7714   2.703   1.751   3.314  1.3097 -0.3662 -0.9681
 2501WAT     H2 7715   2.789   1.850   3.239  1.1517  0.0944 -0.5449
 2502WAT      O 7716   4.463   1.823   5.310 -0.3512 -0.1117  0.3214
 2502WAT     H1 7717   4.387   1.880   5.301  0.2672  0.5720 -0.7670
 2502WAT     H2 7718   4.488   1.831   5.402  0.2391  2.0913  0.0356
 2503WAT      O 7719   2.267   4.314   2.776 -0.0020  0.3774  0.0155
 2503WAT     H1 7720   2.223   4.249   2.831  1.4111  0.1712  0.9762
 2503WAT     H2 7721   2.360   4.290   2.781  0.1691  0.2878 -2.5881
 2504WAT      O 7722   3.539   1.987   3.641  0.2001 -0.2332  0.1005
 2504WAT     H1 7723   3.496   2.071   3.655  0.2375 -0.4266  1.5580
 2504WAT     H2 7724   3.467   1.924   3.631  0.1723 -0.1070 -0.5369
 2505WAT      O 7725   0.844   1.043   3.691  0.1501  0.4845 -0.6500
 2505WAT     H1 7726   0.787   1.046   3.768 -1.2727  0.9977 -1.6717
 2505WAT     H2 7727   0.932   1.033   3.726 -0.5818 -0.7398  0.9936
 2506WAT      O 7728   0.410   0.111   3.459  0.3535 -0.2964  0.2540
 2506WAT     H1 7729   0.441   0.202   3.460 -0.4644 -0.0044  0.1376
 2506WAT     H2 7730   0.367   0.102   3.374  1.6078 -1.2211 -0.3212
 2507WAT      O 7731   4.299   5.111   3.238  0.4540 -0.6972 -0.0172
 2507WAT     H1 7732   4.206   5.134   3.246  1.0344  1.8188  0.2579
 2507WAT     H2 7733   4.312   5.041   3.302 -1.0485 -0.4510  0.5897
 2508WAT      O 7734   4.111   1.049   3.428 -0.7173 -0.5297  1.0709
 2508WAT     H1 7735   4.184   1.094   3.385  0.7239 -0.7836  3.0979
 2508WAT     H2 7736   4.035   1.105   3.411  0.0591  0.1062 -0.5144
 2509WAT      O 7737   2.709   1.367   2.398 -0.4387  0.6358 -0.3021
 2509WAT     H1 7738   2.794   1.404   2.422 -0.4578  1.5335 -1.5101
 2509WAT     H2 7739   2.663   1.439   2.354 -1.4317 -0.1348 -0.5674
 2510WAT      O 7740   1.864   2.965   3.572 -0.5102  0.5819  0.8456
 2510WAT     H1 7741   1.776   2.960   3.534 -0.4949  3.2739  0.2660
 2510WAT     H2 7742   1.851   3.009   3.656  0.2006  0.1980  1.1628
 2511WAT      O 7743   2.650   1.156   4.002  0.3581  0.3692 -0.2271
 2511WAT     H1 7744   2.698   1.078   3.975  0.7425  0.6184 -0.2816
 2511WAT     H2 7745   2.717   1.225   4.006 -0.3768  1.3307 -2.7875
 2512WAT      O 7746   3.093   0.355   1.199  0.5464 -0.7072 -0.2050
 2512WAT     H1 7747   3.038   0.284   1.165  0.5861 -0.8621  0.0516
 2512WAT     H2 7748   3.086   0.424   1.133 -1.8601  0.2285  0.9505
 2513WAT      O 7749   2.389   1.239   3.300 -0.1353  0.0808 -0.0074
 2513WAT     H1 7750   2.477   1.272   3.287  0.3865 -0.5157  1.6998
 2513WAT     H2 7751   2.389   1.205   3.390 -2.2997  0.7557  0.3303
 2514WAT      O 7752   3.372   5.381   3.410 -0.3883  0.5543 -0.0278
 2514WAT     H1 7753   3.374   5.466   3.367 -1.4123  0.9506  0.6867
 2514WAT     H2 7754   3.406   5.396   3.498 -0.4215  0.1931  0.0519
 2515WAT      O 7755   3.054   1.782   2.043  0.4860 -0.3923  0.1281
 2515WAT     H1 7756   3.113   1.857   2.033  0.7635 -0.7611 -1.1738
 2515WAT     H2 7757   2.980   1.816   2.094 -0.0881  1.1765 -1.6524
 2516WAT      O 7758   1.735   1.882   5.228  0.2746  0.6135 -0.3928
 2516WAT     H1 7759   1.669   1.899   5.296 -1.4437 -1.2890 -1.4869
 2516WAT     H2 7760   1.810   1.848   5.276 -1.4185 -2.0748  0.5294
 2517WAT      O 7761   1.170   1.869   3.885  0.2369  0.1318 -0.2347
 2517WAT     H1 7762   1.083   1.899   3.859 -0.2466  0.3665  1.5124
 2517WAT     H2 7763   1.180   1.898   3.976  1.7503 -0.7399 -0.0705
 2518WAT      O 7764   2.223   2.470   3.095  0.2239 -0.0404 -0.4393
 2518WAT     H1 7765   2.219   2.565   3.086  0.2731  0.0844  0.6968
 2518WAT     H2 7766   2.166   2.451   3.169 -0.7973 -1.0371 -1.4309
 2519WAT      O 7767   2.287   2.737   3.589  0.4888 -0.0186  0.3972
 2519WAT     H1 7768   2.363   2.682   3.606 -1.8402 -3.0730  2.0086
 2519WAT     H2 7769   2.255   2.707   3.504  0.2848  0.2397  0.3831
 2520WAT      O 7770   0.404   5.046   3.676 -0.0232  0.1654  0.2691
 2520WAT     H1 7771   0.435   5.005   3.595 -1.7689 -2.0184  0.6162
 2520WAT     H2 7772   0.429   5.138   3.667  2.7568 -0.6348 -1.2280
 2521WAT      O 7773   0.922   1.205   2.381  0.1218  0.1641  0.4101
 2521WAT     H1 7774   0.933   1.171   2.470  0.2125  0.1224  0.3824
 2521WAT     H2 7775   0.915   1.300   2.392  0.5627  0.1978  0.4210
 2522WAT      O 7776   4.811   3.283   0.286 -0.0561  0.5004  0.2219
 2522WAT     H1 7777   4.746   3.226   0.246 -0.1859  0.3636  0.6252
 2522WAT     H2 7778   4.794   3.277   0.380  0.8209  0.1091  0.3712
 2523WAT      O 7779   3.681   1.781   2.227  0.5334 -0.1205  0.4587
 2523WAT     H1 7780   3.769   1.808   2.256  0.6715 -1.4657  1.3851
 2523WAT     H2 7781   3.648   1.726   2.299 -1.2913  0.7819  0.3593
 2524WAT      O 7782   3.061   0.536   2.797 -0.3823  0.0586  0.7123
 2524WAT     H1 7783   3.054   0.609   2.735 -1.5850 -1.1218 -0.5989
 2524WAT     H2 7784   3.113   0.470   2.750  0.9417  0.1418  1.9952
 2525WAT      O 7785   0.674   2.490   3.538  0.2806  0.4381  0.2897
 2525WAT     H1 7786   0.584   2.460   3.524 -0.1866  0.3660  2.9068
 2525WAT     H2 7787   0.702   2.444   3.617  2.0209  1.7524  0.4932
 2526WAT      O 7788   2.423   0.240   3.311  0.0937  0.4283 -0.4302
 2526WAT     H1 7789   2.380   0.206   3.233  1.2823  1.2924 -1.4959
 2526WAT     H2 7790   2.353   0.246   3.376 -0.8839 -0.4685 -1.3560
 2527WAT      O 7791   1.613   0.732   3.472 -0.1381 -0.0343 -0.2845
 2527WAT     H1 7792   1.525   0.698   3.486  0.0256 -1.0449 -1.5218
 2527WAT     H2 7793   1.624   0.733   3.377  0.7348  1.2841 -0.1995
 2528WAT      O 7794   0.715   4.871   3.155 -0.2920  0.4894  0.7407
 2528WAT     H1 7795   0.758   4.870   3.240  1.6971  1.8477 -0.1765
 2528WAT     H2 7796   0.783   4.845   3.093 -1.5071  0.2038 -0.5230
 2529WAT      O 7797   2.099   1.118   3.663  0.6846 -0.2409  1.2804
 2529WAT     H1 7798   2.036   1.178   3.702 -1.2268 -1.0471 -0.3766
 2529WAT     H2 7799   2.184   1.146   3.697  0.0380  3.9580 -0.0190
 2530WAT      O 7800   0.073   5.016   1.712 -0.5097  0.2977 -0.4972
 2530WAT     H1 7801   0.073   5.089   1.650  0.0594  3.2658  2.6323
 2530WAT     H2 7802  -0.016   4.981   1.708 -1.3904  2.4052 -0.9373
 2531WAT      O 7803   0.410   3.796   3.031 -1.0155 -0.5074  0.3233
 2531WAT     H1 7804   0.428   3.710   3.069 -1.2701 -0.0887  1.4472
 2531WAT     H2 7805   0.360   3.778   2.952 -1.6729 -1.3685  0.9179
 2532WAT      O 7806   4.799   4.078   1.700 -0.1151  0.3861  0.5026
 2532WAT     H1 7807   4.782   4.046   1.611 -3.1152  1.1956  0.6769
 2532WAT     H2 7808   4.816   3.999   1.751 -1.4796 -0.4022 -0.2128
 2533WAT      O 7809   2.853   4.265   4.425  0.0989 -0.3736 -0.4235
 2533WAT     H1 7810   2.854   4.289   4.517  1.7530 -1.9310  0.0075
 2533WAT     H2 7811   2.791   4.327   4.385  2.0460  2.7561  1.0360
 2534WAT      O 7812   0.167   5.465   3.175  0.2042  0.1038 -0.2602
 2534WAT     H1 7813   0.074   5.468   3.154  0.4374 -0.8074 -1.5954
 2534WAT     H2 7814   0.208   5.425   3.098  1.3936 -1.8097  1.2422
 2535WAT      O 7815   0.747   0.107   2.441  0.0065 -0.3052  0.1240
 2535WAT     H1 7816   0.755   0.044   2.512  2.3940 -0.4616 -0.2106
 2535WAT     H2 7817   0.766   0.192   2.482  1.2944 -0.3847 -0.2662
 2536WAT      O 7818   2.116   4.082   4.060 -0.6036  0.2999  0.3358
 2536WAT     H1 7819   2.108   3.986   4.056 -1.3925  0.3661  0.0929
 2536WAT     H2 7820   2.027   4.113   4.049 -0.3598  1.0685  0.5102
 2537WAT      O 7821   3.463   1.177   3.780  0.5611  0.1495  0.3029
 2537WAT     H1 7822   3.509   1.207   3.702  0.0006 -0.0016 -0.0853
 2537WAT     H2 7823   3.526   1.119   3.824  0.9993  0.5041  0.1463
 2538WAT      O 7824   4.945   3.701   3.440 -0.0412 -0.4185 -1.0230
 2538WAT     H1 7825   5.004   3.766   3.478 -1.9716  0.0690  1.4225
 2538WAT     H2 7826   4.975   3.618   3.477 -1.1014 -0.1057  0.6638
 2539WAT      O 7827   4.123   5.522   1.671  0.0450 -0.4843 -0.2424
 2539WAT     H1 7828   4.117   5.587   1.601 -1.2485  1.5380  1.6249
 2539WAT     H2 7829   4.212   5.487   1.664  0.2822  0.3892 -2.2187
 2540WAT      O 7830   1.681   0.888   1.997 -0.0697  0.0154 -0.1529
 2540WAT     H1 7831   1.748   0.853   1.938  0.7783  0.9489  0.2262
 2540WAT     H2 7832   1.724   0.892   2.083  0.0740  2.4006 -0.2624
 2541WAT      O 7833   1.406   4.968   4.111 -0.0404 -0.3649  0.5026
 2541WAT     H1 7834   1.373   4.884   4.079  2.1439 -0.8961 -0.5103
 2541WAT     H2 7835   1.483   4.946   4.163  0.8745  1.0062 -0.1923
 2542WAT      O 7836  -0.005   5.225   3.397 -0.5020 -0.2159  0.4264
 2542WAT     H1 7837   0.078   5.221   3.350  0.1676 -0.4084  1.5925
 2542WAT     H2 7838   0.004   5.300   3.455 -0.6116 -1.0275  1.5175
 2543WAT      O 7839   1.723   1.244   2.744 -0.4301  0.2921 -0.2735
 2543WAT     H1 7840   1.662   1.193   2.691 -0.1035 -0.4220  0.0312
 2543WAT     H2 7841   1.669   1.284   2.812 -0.8166  1.0285 -0.9878
 2544WAT      O 7842   3.527   2.561   0.072  0.8158  0.5701  0.7296
 2544WAT     H1 7843   3.562   2.557   0.161 -0.9183 -1.4756  1.3809
 2544WAT     H2 7844   3.450   2.617   0.080  0.5704  0.2555  0.5299
 2545WAT      O 7845   1.350   2.068   2.771 -0.5204  0.3180 -0.0336
 2545WAT     H1 7846   1.263   2.074   2.810  0.0597  0.1307  1.3359
 2545WAT     H2 7847   1.336   2.026   2.686 -1.8649  1.0987 -0.2157
 2546WAT      O 7848   1.953   2.040   3.522 -0.1200 -0.6521  0.0182
 2546WAT     H1 7849   1.960   2.034   3.617  0.5041  0.1409  0.0300
 2546WAT     H2 7850   1.993   2.124   3.500 -1.6234 -0.1041 -0.7938
 2547WAT      O 7851   3.023   1.058   1.689  0.3823 -0.4103 -0.2938
 2547WAT     H1 7852   3.107   1.102   1.703 -1.1210  3.4031 -2.0990
 2547WAT     H2 7853   2.973   1.078   1.768 -0.1125  0.6831 -0.8750
 2548WAT      O 7854   0.182   4.370   3.421  0.4042 -0.2685 -0.1531
 2548WAT     H1 7855   0.140   4.397   3.502  0.5392  0.2347 -0.2421
 2548WAT     H2 7856   0.129   4.410   3.352  0.6146 -0.2218 -0.2902
 2549WAT      O 7857   2.121   0.918   3.280  0.2935 -0.3795 -0.0494
 2549WAT     H1 7858   2.116   1.013   3.283 -2.9532 -0.2140 -3.5779
 2549WAT     H2 7859   2.203   0.900   3.233 -0.5224  0.8854 -2.0551
 2550WAT      O 7860   2.759   1.616   1.649 -0.1286  0.1007  0.2189
 2550WAT     H1 7861   2.694   1.547   1.660  0.2173 -0.2415  0.1103
 2550WAT     H2 7862   2.832   1.590   1.705  0.2932  0.0193 -0.3713
 2551WAT      O 7863   4.793   3.843   3.239  0.1829 -0.2785 -0.0124
 2551WAT     H1 7864   4.847   3.862   3.162  1.0653  0.5756  0.7897
 2551WAT     H2 7865   4.852   3.795   3.297 -0.1492  0.0475  0.5941
 2552WAT      O 7866   1.646   1.798   4.797  0.3408  0.5187  0.0026
 2552WAT     H1 7867   1.722   1.839   4.755 -0.2167  1.6851  0.0876
 2552WAT     H2 7868   1.595   1.763   4.724  0.9345 -0.2254 -0.0575
 2553WAT      O 7869   3.923   3.112   2.348  0.3073 -0.1082  0.2352
 2553WAT     H1 7870   3.895   3.115   2.440 -0.0727  0.5947  0.1045
 2553WAT     H2 7871   3.899   3.025   2.318 -0.0527 -0.1588  0.6557
 2554WAT      O 7872   3.473   5.614   3.068  0.4768  0.0094 -0.1691
 2554WAT     H1 7873   3.536   5.685   3.062 -0.3116  0.7056 -0.2847
 2554WAT     H2 7874   3.507   5.558   3.138  1.2081  0.3795 -0.2218
 2555WAT      O 7875   3.183   0.604   3.684 -0.2710  0.0165  0.1543
 2555WAT     H1 7876   3.121   0.654   3.630 -0.4508 -0.6373 -0.2563
 2555WAT     H2 7877   3.195   0.521   3.636 -0.3405 -0.5227  1.0545
 2556WAT      O 7878   1.775   4.532   2.764 -0.2488  0.5765 -0.1576
 2556WAT     H1 7879   1.699   4.586   2.785 -1.0486 -0.6182  0.1407
 2556WAT     H2 7880   1.843   4.595   2.740 -1.2806  1.6822 -0.3037
 2557WAT      O 7881   0.317   1.451   2.835 -0.3417  0.2907 -0.2331
 2557WAT     H1 7882   0.338   1.443   2.928 -1.0573  0.4965 -0.0464
 2557WAT     H2 7883   0.267   1.533   2.830 -1.2263 -0.2691 -0.6299
 2558WAT      O 7884   0.268   2.776   4.101  0.3831 -0.1656 -0.4272
 2558WAT     H1 7885   0.226   2.699   4.063  0.2769 -0.9285  1.1556
 2558WAT     H2 7886   0.229   2.850   4.053 -1.0396 -0.9811 -0.6040
 2559WAT      O 7887   2.807   1.710   5.172  1.0686  0.1838  0.1909
 2559WAT     H1 7888   2.726   1.760   5.170  0.2621 -1.0808  0.0967
 2559WAT     H2 7889   2.833   1.710   5.265  0.8692  0.4470  0.2459
 2560WAT      O 7890   2.672   3.637   1.994 -0.3248  0.1233 -0.4456
 2560WAT     H1 7891   2.747   3.580   1.984  0.8975  1.2171  1.7323
 2560WAT     H2 7892   2.707   3.726   1.986 -1.6653  0.6549 -0.8785
 2561WAT      O 7893   3.692   2.651   3.362  0.4735  0.3637  0.0582
 2561WAT     H1 7894   3.708   2.560   3.337  1.5178  0.7907 -0.8747
 2561WAT     H2 7895   3.608   2.672   3.321 -0.3256 -0.4741  1.1692
 2562WAT      O 7896   4.353   4.193   3.643 -0.6880  0.4997 -0.0895
 2562WAT     H1 7897   4.384   4.281   3.621  1.3042 -0.1692 -0.1350
 2562WAT     H2 7898   4.381   4.138   3.570 -0.2729 -0.4850  0.7803
 2563WAT      O 7899   2.456   0.860   3.870  0.7821  0.4584  0.2488
 2563WAT     H1 7900   2.517   0.799   3.912  0.4622  1.0644  1.6279
 2563WAT     H2 7901   2.474   0.945   3.911 -1.1707  0.5978  0.9134
 2564WAT      O 7902   3.254   2.040   4.555 -0.1836  0.3767 -0.3082
 2564WAT     H1 7903   3.303   1.996   4.625 -0.1785  1.2788  0.2747
 2564WAT     H2 7904   3.206   2.110   4.600 -2.2305 -0.6160 -0.7991
 2565WAT      O 7905   3.511   3.882   4.676 -1.0738  0.8640  0.1541
 2565WAT     H1 7906   3.477   3.809   4.625  1.0859  0.1638 -0.3871
 2565WAT     H2 7907   3.523   3.846   4.764  2.1270 -0.2838 -0.5998
 2566WAT      O 7908   3.749   5.254   1.836  0.0629 -0.0549 -0.4604
 2566WAT     H1 7909   3.714   5.198   1.905 -2.5665  0.5109 -1.2344
 2566WAT     H2 7910   3.843   5.238   1.838 -0.3093 -2.5637  0.9984
 2567WAT      O 7911   1.735   1.921   5.815 -0.3088  0.3583 -0.0640
 2567WAT     H1 7912   1.663   1.973   5.781 -1.3717 -2.1438 -1.9707
 2567WAT     H2 7913   1.693   1.843   5.852  1.2808  0.1009  1.3701
 2568WAT      O 7914   3.851   5.108   4.094 -0.8407 -0.3170  0.1349
 2568WAT     H1 7915   3.908   5.034   4.071 -0.5940  0.0113 -0.3097
 2568WAT     H2 7916   3.784   5.069   4.150 -1.1730 -1.0316 -0.7427
 2569WAT      O 7917   4.126   1.748   0.417 -0.5454 -0.5924 -0.3150
 2569WAT     H1 7918   4.206   1.800   0.407 -0.4259 -0.4985  0.8947
 2569WAT     H2 7919   4.121   1.695   0.338 -0.1601  0.5805 -1.1427
 2570WAT      O 7920   2.491  -0.020   4.134  0.8242 -0.1874 -0.1584
 2570WAT     H1 7921   2.516   0.062   4.176  2.0377  1.1570 -3.2222
 2570WAT     H2 7922   2.426   0.006   4.068  0.0169 -1.9668 -0.1241
 2571WAT      O 7923   1.499   3.259   1.955  0.6541  0.3008  0.1391
 2571WAT     H1 7924   1.573   3.229   1.902 -0.4298  3.6454 -3.7946
 2571WAT     H2 7925   1.521   3.348   1.981 -1.0675  0.5747  0.8654
 2572WAT      O 7926   3.349   2.497   3.696 -0.1136  0.2902  0.0293
 2572WAT     H1 7927   3.426   2.553   3.707 -0.5673  0.6906  1.2678
 2572WAT     H2 7928   3.296   2.543   3.631 -0.1465  0.9258  0.5016
 2573WAT      O 7929   0.900   3.233   4.533 -0.0474 -0.0128  0.0309
 2573WAT     H1 7930   0.933   3.212   4.620 -0.3178  1.0791  0.4222
 2573WAT     H2 7931   0.968   3.204   4.473  1.0041  0.9148  0.7316
 2574WAT      O 7932   1.662   1.931   2.439  0.2756  0.2435 -0.5478
 2574WAT     H1 7933   1.650   1.840   2.468  1.9200  0.3066  0.4271
 2574WAT     H2 7934   1.582   1.950   2.389 -0.6065 -1.3635  0.1603
 2575WAT      O 7935   1.792   4.996   1.082  0.8674 -0.0167 -0.5433
 2575WAT     H1 7936   1.698   5.005   1.097  0.7921 -0.6143 -0.6302
 2575WAT     H2 7937   1.799   4.962   0.993  1.0831 -1.5595  0.0339
 2576WAT      O 7938   2.997   4.845   4.103 -0.0599  0.1577  0.2353
 2576WAT     H1 7939   3.056   4.920   4.097  0.2140 -0.1705 -3.4064
 2576WAT     H2 7940   2.909   4.882   4.098  0.0400  0.3550 -0.1247
 2577WAT      O 7941   2.193   2.842   2.269 -0.1327 -0.4342 -0.5135
 2577WAT     H1 7942   2.199   2.747   2.265  0.6050 -0.3818 -0.9185
 2577WAT     H2 7943   2.277   2.873   2.233 -0.6228  0.3729 -1.0039
 2578WAT      O 7944   0.551   5.288   3.585 -0.1554 -0.3106  0.0048
 2578WAT     H1 7945   0.509   5.351   3.526 -0.2817 -1.0491 -0.7051
 2578WAT     H2 7946   0.633   5.266   3.542 -0.2455 -0.8514  0.1081
 2579WAT      O 7947   4.190   2.093   4.440  0.0257  0.2636  0.0343
 2579WAT     H1 7948   4.199   2.097   4.345 -1.0306 -0.7617 -0.1409
 2579WAT     H2 7949   4.274   2.057   4.470  0.1897  0.1282 -0.5649
 2580WAT      O 7950   0.324   0.415   2.304 -0.2697 -0.0036  0.1443
 2580WAT     H1 7951   0.303   0.332   2.261 -0.8286  0.4752 -0.5388
 2580WAT     H2 7952   0.299   0.481   2.240  1.0654  0.6786  0.2807
 2581WAT      O 7953   0.342   1.061   3.066  0.5522 -0.1373  0.2078
 2581WAT     H1 7954   0.308   1.023   2.985 -1.5993 -1.3573  1.5725
 2581WAT     H2 7955   0.330   1.155   3.056  0.4107 -0.2594 -0.9011
 2582WAT      O 7956   3.591   1.368   2.676  0.3001  0.5121 -0.4130
 2582WAT     H1 7957   3.660   1.327   2.625 -1.0553 -1.1393 -1.0271
 2582WAT     H2 7958   3.538   1.295   2.708 -0.9207  1.6870  0.3952
 2583WAT      O 7959   3.157   0.566   1.394 -0.5737 -0.3241 -0.2916
 2583WAT     H1 7960   3.106   0.645   1.380 -0.0351  0.0448 -0.1930
 2583WAT     H2 7961   3.152   0.519   1.311  1.0994  0.9773 -1.2068
 2584WAT      O 7962   0.894   5.403   2.443 -0.2577 -0.5667 -0.4303
 2584WAT     H1 7963   0.946   5.431   2.518 -0.4475  0.4899 -0.6703
 2584WAT     H2 7964   0.804   5.422   2.468 -0.3884 -0.9507 -0.6130
 2585WAT      O 7965   4.364   2.087   5.027  0.3766  0.9440  0.5214
 2585WAT     H1 7966   4.345   2.105   5.119 -1.2110  1.2449  0.1592
 2585WAT     H2 7967   4.448   2.041   5.028  0.6061  1.3537  2.0728
 2586WAT      O 7968   1.429   5.559   3.744  0.6293 -0.2624  0.5940
 2586WAT     H1 7969   1.487   5.595   3.811  0.3847 -2.7289  2.2455
 2586WAT     H2 7970   1.488   5.522   3.679  0.8634  0.9695  0.0729
 2587WAT      O 7971   3.279   0.618   2.152 -0.7762  0.1889 -0.0544
 2587WAT     H1 7972   3.253   0.711   2.151  0.4237  0.5500 -2.1260
 2587WAT     H2 7973   3.295   0.596   2.061 -0.0091 -1.7862  0.5034
 2588WAT      O 7974   0.371   2.573   2.578 -0.0774  0.1698 -0.8626
 2588WAT     H1 7975   0.375   2.612   2.491 -1.1698  1.0794 -0.5209
 2588WAT     H2 7976   0.354   2.480   2.561 -1.7331  0.5822 -1.6013
 2589WAT      O 7977   2.442   0.237   4.243 -0.3131  0.1150 -0.0936
 2589WAT     H1 7978   2.356   0.279   4.255 -0.2777 -0.3681  2.2453
 2589WAT     H2 7979   2.492   0.264   4.320  0.4251 -2.4921  0.4130
 2590WAT      O 7980   2.111   2.271   3.502 -0.0002 -0.4902  0.4698
 2590WAT     H1 7981   2.206   2.259   3.507 -0.2732 -3.1674  0.6375
 2590WAT     H2 7982   2.095   2.287   3.409  0.6259  0.2860  0.4820
 2591WAT      O 7983   0.817   0.491   3.497 -0.3454  0.1812 -0.6299
 2591WAT     H1 7984   0.744   0.501   3.559  0.0373  0.6757 -0.2491
 2591WAT     H2 7985   0.857   0.578   3.493  0.8044 -0.3067 -0.1192
 2592WAT      O 7986   4.726   4.891   3.898  0.0948 -0.2052 -0.4449
 2592WAT     H1 7987   4.714   4.796   3.909 -2.7876  0.3047  1.8762
 2592WAT     H2 7988   4.776   4.917   3.975  3.5945 -0.0541 -2.5030
 2593WAT      O 7989   0.887   0.755   2.399  0.0791  0.0293 -0.4717
 2593WAT     H1 7990   0.828   0.799   2.460  0.0985  0.9248 -1.0875
 2593WAT     H2 7991   0.931   0.688   2.452 -1.3949 -0.5919  0.0265
 2594WAT      O 7992   0.048   5.055   3.027  0.3061 -0.2000 -0.4235
 2594WAT     H1 7993   0.080   4.965   3.041 -2.1908 -1.1160 -0.1445
 2594WAT     H2 7994   0.081   5.103   3.103  0.2990 -1.3027  0.3188
 2595WAT      O 7995   1.293   4.307   0.939  0.1203 -0.4301 -0.2737
 2595WAT     H1 7996   1.250   4.307   1.025  0.0270 -0.4089 -0.3200
 2595WAT     H2 7997   1.258   4.229   0.895  0.0286 -0.3409 -0.3606
 2596WAT      O 7998   2.762   4.139   0.840  0.3458 -0.2879  0.4410
 2596WAT     H1 7999   2.694   4.109   0.899 -1.3525  2.0072 -0.2181
 2596WAT     H2 8000   2.759   4.078   0.767  0.4800 -1.4284  1.3510
 2597WAT      O 8001   4.147   0.567   4.007 -0.1341  0.3098  0.1853
 2597WAT     H1 8002   4.187   0.621   3.938  0.2393 -1.1286 -0.7717
 2597WAT     H2 8003   4.221   0.536   4.059 -0.0881 -1.1708 -0.7081
 2598WAT      O 8004   4.788   4.501   2.962  0.0441  0.1789 -0.0509
 2598WAT     H1 8005   4.705   4.455   2.950 -0.3018  0.8309 -0.1887
 2598WAT     H2 8006   4.833   4.452   3.031  0.1372 -0.9760 -0.9009
 2599WAT      O 8007   2.734   2.128   2.674  0.0174 -0.0895 -0.1090
 2599WAT     H1 8008   2.705   2.195   2.735  0.6852 -0.1370  0.2735
 2599WAT     H2 8009   2.660   2.068   2.667  0.5759 -1.1581  2.1827
 2600WAT      O 8010   2.047   3.455   0.350  0.6716  0.2132  0.1148
 2600WAT     H1 8011   2.133   3.484   0.382  1.6865 -1.1746 -1.2060
 2600WAT     H2 8012   2.043   3.363   0.377 -0.6940  0.4226  0.6852
 2601WAT      O 8013   4.205   2.850   2.327 -0.3609 -0.1713 -0.2775
 2601WAT     H1 8014   4.295   2.871   2.351 -0.4520  0.3857 -0.4122
 2601WAT     H2 8015   4.154   2.867   2.406 -0.1053 -2.3701  0.4369
 2602WAT      O 8016   2.167   4.053   1.613  0.2803  0.2690 -0.1989
 2602WAT     H1 8017   2.092   4.062   1.672 -1.0069  0.2469 -1.7553
 2602WAT     H2 8018   2.232   4.114   1.648  0.0216 -0.5737  1.8801
 2603WAT      O 8019   1.792   3.835   0.138  0.5496  0.3865  0.6287
 2603WAT     H1 8020   1.724   3.825   0.072 -2.2224  0.3306  3.2356
 2603WAT     H2 8021   1.812   3.929   0.138  2.4134  0.0753 -1.8009
 2604WAT      O 8022   0.989   1.301   2.888  0.2385  0.2021 -0.3598
 2604WAT     H1 8023   0.917   1.242   2.911  0.1241  0.3337 -0.3823
 2604WAT     H2 8024   1.035   1.316   2.970  0.9310 -0.7991 -0.5348
 2605WAT      O 8025   2.900   0.085   3.017  0.4056 -0.1378  0.1379
 2605WAT     H1 8026   2.806   0.071   3.002  0.1795  0.4056  1.0187
 2605WAT     H2 8027   2.942   0.038   2.945 -0.6045  1.1486 -1.3774
 2606WAT      O 8028   1.667   4.795   2.513  0.0001 -0.2785 -0.5825
 2606WAT     H1 8029   1.616   4.845   2.449 -0.3597  0.3487  0.1819
 2606WAT     H2 8030   1.650   4.838   2.597  1.2143 -0.4977 -0.1921
 2607WAT      O 8031   1.816   2.626   1.294 -0.4030 -0.4549  0.7872
 2607WAT     H1 8032   1.742   2.651   1.239 -0.1780 -0.9171  0.2731
 2607WAT     H2 8033   1.779   2.618   1.382 -0.8962 -0.3619  0.5884
 2608WAT      O 8034   4.620   2.313   0.610  0.2215 -0.3785  0.3861
 2608WAT     H1 8035   4.579   2.318   0.696 -0.9022  0.0944 -0.1565
 2608WAT     H2 8036   4.652   2.401   0.592 -0.4148 -0.2326 -0.0779
 2609WAT      O 8037   2.866   1.436   2.784 -0.5473  0.3245  0.4792
 2609WAT     H1 8038   2.945   1.478   2.751 -0.9078  1.4076  0.9548
 2609WAT     H2 8039   2.854   1.473   2.871 -1.2531 -0.2722  0.6448
 2610WAT      O 8040   0.029   1.027   4.404 -0.3794  0.1046 -0.9187
 2610WAT     H1 8041  -0.019   0.997   4.327 -1.2826 -0.0704 -0.3138
 2610WAT     H2 8042   0.053   0.946   4.450  1.4774  0.1385 -1.7596
 2611WAT      O 8043   2.703   3.213   0.801 -0.2347 -0.1790 -0.4828
 2611WAT     H1 8044   2.640   3.162   0.749 -1.1688  1.2356 -0.7994
 2611WAT     H2 8045   2.785   3.207   0.751  1.0498 -4.9903  1.6802
 2612WAT      O 8046   1.087   2.321   1.815  0.2612 -0.0424 -0.2545
 2612WAT     H1 8047   1.176   2.319   1.779  0.2876  0.9121 -0.2615
 2612WAT     H2 8048   1.033   2.287   1.744  0.6737 -1.2092 -0.0386
 2613WAT      O 8049   0.047   0.957   2.670  0.2309 -0.1756 -0.1405
 2613WAT     H1 8050   0.034   1.005   2.752  1.8112 -0.6115  0.3896
 2613WAT     H2 8051   0.021   1.019   2.602  0.0188  0.6027  0.6275
 2614WAT      O 8052   4.606   2.702   1.054 -0.0438  0.2780 -0.0424
 2614WAT     H1 8053   4.613   2.619   1.101  0.5728 -0.2598 -1.0587
 2614WAT     H2 8054   4.666   2.761   1.100  0.3156 -0.1489  0.0406
 2615WAT      O 8055   0.316   4.978   1.813  0.1525  0.1382  0.5680
 2615WAT     H1 8056   0.238   5.016   1.773  0.6350 -0.1338 -0.6749
 2615WAT     H2 8057   0.311   5.003   1.906 -1.0828  0.6368  0.3752
 2616WAT      O 8058   0.315   1.349   3.084  0.9217  0.0646 -0.5218
 2616WAT     H1 8059   0.238   1.380   3.131 -0.4080 -2.1141 -1.1586
 2616WAT     H2 8060   0.387   1.362   3.145 -0.0370  1.3699  0.3996
 2617WAT      O 8061   2.651   3.190   0.327  0.1532 -0.2696 -0.0922
 2617WAT     H1 8062   2.561   3.188   0.358 -0.4299  0.9658 -1.5904
 2617WAT     H2 8063   2.680   3.280   0.342 -0.4496  0.6842 -3.6457
 2618WAT      O 8064   1.592   2.773   0.362  0.2382 -0.4436 -0.5759
 2618WAT     H1 8065   1.564   2.854   0.319  0.7969  0.5524  0.8797
 2618WAT     H2 8066   1.532   2.706   0.328 -1.0245  0.8015 -0.8800
 2619WAT      O 8067   4.273   5.409   2.688 -0.2827 -0.2323 -0.2406
 2619WAT     H1 8068   4.340   5.461   2.733 -1.8194  1.3299  0.3366
 2619WAT     H2 8069   4.239   5.468   2.621 -1.7606 -0.6220  0.1362
 2620WAT      O 8070   2.432   5.630   2.033  0.4938  0.0622 -0.2084
 2620WAT     H1 8071   2.372   5.704   2.023 -0.8135 -0.6401  1.7703
 2620WAT     H2 8072   2.430   5.586   1.948  1.3479  2.2526 -1.4557
 2621WAT      O 8073   1.559   3.228   2.446 -0.1520 -0.5726  0.3429
 2621WAT     H1 8074   1.639   3.174   2.448  0.0355 -0.2916  0.5167
 2621WAT     H2 8075   1.515   3.202   2.365  1.1039  0.6800 -0.7817
 2622WAT      O 8076   1.376   2.781   2.259 -0.2881 -0.5018 -0.5862
 2622WAT     H1 8077   1.427   2.805   2.336 -1.7264 -0.1948  0.3042
 2622WAT     H2 8078   1.370   2.862   2.208 -0.9520 -0.1995 -0.0469
 2623WAT      O 8079   3.611   3.573   0.783  0.3884  0.1887 -0.1219
 2623WAT     H1 8080   3.664   3.604   0.857 -1.7202  0.2686  1.4402
 2623WAT     H2 8081   3.594   3.652   0.732  1.4551  0.2157 -0.4675
 2624WAT      O 8082   2.061   2.883   4.784  0.2744 -0.0627  0.6447
 2624WAT     H1 8083   2.085   2.914   4.871 -1.3322  1.4669  0.5850
 2624WAT     H2 8084   1.971   2.852   4.793  0.2666 -0.3939 -0.3724
 2625WAT      O 8085   4.191   3.500   4.579 -0.0563 -0.1173 -0.4038
 2625WAT     H1 8086   4.205   3.512   4.672  1.7840 -0.4745 -0.6002
 2625WAT     H2 8087   4.232   3.576   4.537 -1.7271  0.5630 -0.9170
 2626WAT      O 8088   1.796   5.080   3.906 -0.5194  0.3854 -0.6806
 2626WAT     H1 8089   1.861   5.141   3.871 -0.0405  0.4462  0.2719
 2626WAT     H2 8090   1.718   5.133   3.920 -0.2269  0.6960 -0.2196
 2627WAT      O 8091   1.882   3.315   2.613  0.1545 -0.1154  0.3800
 2627WAT     H1 8092   1.970   3.300   2.649  0.5795 -0.9459 -0.9300
 2627WAT     H2 8093   1.883   3.268   2.529 -1.4586  0.0893  0.2308
 2628WAT      O 8094   2.017   2.717   3.692 -0.5329 -0.3899  0.4759
 2628WAT     H1 8095   2.054   2.630   3.711  0.3787 -0.3727 -1.0443
 2628WAT     H2 8096   2.087   2.762   3.645 -1.4378  0.7541  0.1911
 2629WAT      O 8097   0.209   2.391   5.592  0.1267  0.0857  0.3305
 2629WAT     H1 8098   0.247   2.409   5.506 -0.9084  0.7976  0.0024
 2629WAT     H2 8099   0.173   2.302   5.584  1.7913 -0.6563  0.6934
 2630WAT      O 8100   3.630   5.023   2.197 -0.1156 -0.1374  0.2052
 2630WAT     H1 8101   3.553   5.011   2.254 -0.5973 -1.1002 -0.6187
 2630WAT     H2 8102   3.611   5.103   2.148 -2.2033 -2.0060 -2.3463
 2631WAT      O 8103   1.809   1.307   5.674 -0.1717 -0.1357  0.4004
 2631WAT     H1 8104   1.868   1.369   5.633  1.1960 -1.5407  0.1649
 2631WAT     H2 8105   1.822   1.225   5.626 -0.7637 -1.0281  1.6908
 2632WAT      O 8106   4.201   1.735   2.309 -0.7853 -0.6315  0.7098
 2632WAT     H1 8107   4.225   1.644   2.326 -0.5562 -0.4829  1.2270
 2632WAT     H2 8108   4.106   1.734   2.300 -1.0491 -0.6144  2.9175
 2633WAT      O 8109   2.464   5.563   1.760  0.4002  0.2857 -0.1212
 2633WAT     H1 8110   2.381   5.568   1.713  0.3090 -0.9546 -0.1200
 2633WAT     H2 8111   2.529   5.596   1.698  0.1083 -0.1790 -0.6790
 2634WAT      O 8112   4.418   2.587   4.852 -0.4845  0.1512 -0.1034
 2634WAT     H1 8113   4.432   2.657   4.915  1.7565  0.0033 -0.3347
 2634WAT     H2 8114   4.458   2.510   4.892  1.5752  0.1964 -1.8678
 2635WAT      O 8115   1.629   1.677   1.687 -0.4821  0.5983 -0.4742
 2635WAT     H1 8116   1.581   1.760   1.691 -0.4996  0.6496 -1.5366
 2635WAT     H2 8117   1.577   1.617   1.740  0.9918  1.9220  2.7662
 2636WAT      O 8118   1.944   3.856   2.921  0.1082  0.2412 -0.2183
 2636WAT     H1 8119   1.994   3.796   2.866 -0.0896  0.5362 -0.7319
 2636WAT     H2 8120   1.914   3.924   2.861 -0.7779  0.1538  0.1026
 2637WAT      O 8121   1.765   0.632   4.306  0.0482  0.1187  0.3611
 2637WAT     H1 8122   1.704   0.572   4.349  0.6189 -0.0699  0.9292
 2637WAT     H2 8123   1.715   0.669   4.233 -0.9920  0.5594  1.2809
 2638WAT      O 8124   0.098   0.295   1.963 -0.1979  0.1088 -0.5474
 2638WAT     H1 8125   0.177   0.333   1.925 -0.4286  0.6099 -0.5265
 2638WAT     H2 8126   0.126   0.209   1.994  0.1245 -0.0929 -1.3570
 2639WAT      O 8127   1.099   3.981   5.735 -0.0223 -0.2283  0.3466
 2639WAT     H1 8128   1.030   3.941   5.683 -0.0769  2.4099 -1.8592
 2639WAT     H2 8129   1.180   3.948   5.696 -0.0676  1.4760 -1.3498
 2640WAT      O 8130   0.404   0.282   1.533  0.5047 -0.1507  0.3654
 2640WAT     H1 8131   0.465   0.224   1.577  1.8953 -0.2234 -1.5464
 2640WAT     H2 8132   0.459   0.339   1.479 -0.9496  1.6021  0.6195
 2641WAT      O 8133   4.481   3.215   5.577  0.2481  0.6159  0.1142
 2641WAT     H1 8134   4.471   3.279   5.506 -1.2322 -2.4140 -2.7200
 2641WAT     H2 8135   4.560   3.166   5.554  0.3117  0.2054  1.1673
 2642WAT      O 8136   3.836   2.035   2.988 -0.1496  0.1564 -0.1785
 2642WAT     H1 8137   3.929   2.036   2.966  0.5064 -0.2875  2.2010
 2642WAT     H2 8138   3.801   1.959   2.942  0.8471 -0.1212 -0.4957
 2643WAT      O 8139   3.032   0.714   2.429 -0.0102 -0.0991  0.5098
 2643WAT     H1 8140   2.994   0.781   2.485  0.8312  0.1576  0.7731
 2643WAT     H2 8141   3.115   0.750   2.399 -0.6296 -0.0326 -1.2811
 2644WAT      O 8142   1.953   1.148   2.204  0.0765  0.2495 -0.1053
 2644WAT     H1 8143   1.901   1.227   2.191 -0.8491 -0.3810 -0.3816
 2644WAT     H2 8144   2.030   1.159   2.148 -1.3397 -0.1883 -2.2601
 2645WAT      O 8145   0.376   3.400   1.502  0.2921 -0.7968  0.5780
 2645WAT     H1 8146   0.448   3.371   1.558  1.2992 -0.1921 -0.3751
 2645WAT     H2 8147   0.417   3.423   1.419 -0.8239  0.7941  0.4180
 2646WAT      O 8148   2.438   3.883   2.426 -0.5459 -0.1416 -0.2885
 2646WAT     H1 8149   2.352   3.841   2.420 -0.9812  0.7370 -0.3355
 2646WAT     H2 8150   2.433   3.936   2.506  0.5958 -1.4869  0.7213
 2647WAT      O 8151   2.136   1.225   1.721 -0.2497  0.0274  0.7281
 2647WAT     H1 8152   2.099   1.307   1.754  0.1763  0.5659 -0.1064
 2647WAT     H2 8153   2.060   1.168   1.706 -1.0134  1.6927 -2.5976
 2648WAT      O 8154   1.540   3.530   5.656  0.3245 -0.5367 -0.7631
 2648WAT     H1 8155   1.548   3.479   5.736  0.9089 -2.5509 -2.0235
 2648WAT     H2 8156   1.453   3.508   5.622  0.2225  0.0186 -0.8674
 2649WAT      O 8157   1.473   1.550   1.852 -0.0804  0.1142  0.5631
 2649WAT     H1 8158   1.379   1.537   1.857  0.0561 -1.6260 -0.6434
 2649WAT     H2 8159   1.511   1.469   1.885  0.9385 -0.1071 -1.0313
 2650WAT      O 8160   0.141   1.892   4.876 -0.5052 -0.5193  0.4077
 2650WAT     H1 8161   0.184   1.807   4.874  0.8864  0.1184 -2.5099
 2650WAT     H2 8162   0.048   1.873   4.888 -0.0138 -2.2690  1.7646
 2651WAT      O 8163   1.757   0.435   2.054  0.7623 -0.2237 -0.0906
 2651WAT     H1 8164   1.677   0.432   2.003  0.0701  1.2082  0.8419
 2651WAT     H2 8165   1.731   0.473   2.138  2.4946  0.8440  0.0189
 2652WAT      O 8166   0.680   4.712   1.909 -0.3248 -0.0127 -0.4795
 2652WAT     H1 8167   0.644   4.733   1.823 -1.8489 -1.5176 -0.2603
 2652WAT     H2 8168   0.750   4.648   1.890 -0.5635 -0.2372 -0.6090
 2653WAT      O 8169   4.734   0.406   4.065 -0.7441 -0.4064  0.4472
 2653WAT     H1 8170   4.733   0.447   3.978 -1.8312  0.3489  0.8012
 2653WAT     H2 8171   4.680   0.463   4.119  0.3532 -0.5811  1.7694
 2654WAT      O 8172   2.961   1.457   2.467 -0.3974  0.5933 -0.3351
 2654WAT     H1 8173   3.045   1.464   2.422  0.0992 -0.8002  0.3075
 2654WAT     H2 8174   2.964   1.523   2.536  0.9330 -0.5794  0.8009
 2655WAT      O 8175   0.157   3.726   5.306  0.0789 -0.2954  0.2844
 2655WAT     H1 8176   0.233   3.714   5.363 -0.1079 -1.7969  0.2561
 2655WAT     H2 8177   0.193   3.722   5.218  0.1185  0.2598  0.2672
 2656WAT      O 8178   1.010   3.202   2.124  0.2483 -0.5612 -0.3585
 2656WAT     H1 8179   1.076   3.209   2.193 -0.2844 -0.5990  0.1617
 2656WAT     H2 8180   1.059   3.219   2.043  0.3174  2.7547  0.2212
 2657WAT      O 8181   4.897   1.810   2.547  0.0648 -0.6146  0.1710
 2657WAT     H1 8182   4.918   1.746   2.614  1.9515  0.0485  0.3037
 2657WAT     H2 8183   4.813   1.846   2.572 -0.4379 -2.1502  0.7634
 2658WAT      O 8184   4.084   3.896   0.102 -0.5350  0.5640  0.0865
 2658WAT     H1 8185   4.037   3.918   0.021 -1.8129 -0.3799  0.5351
 2658WAT     H2 8186   4.173   3.928   0.087 -0.9629  1.1928 -1.3441
 2659WAT      O 8187   0.596   1.729   4.708 -0.0366  0.0790 -0.0594
 2659WAT     H1 8188   0.633   1.814   4.734  0.4549 -0.1117 -0.1378
 2659WAT     H2 8189   0.574   1.687   4.791 -0.2832  0.2799 -0.0192
 2660WAT      O 8190   3.687   1.702   2.531  0.3014 -0.2075  0.5011
 2660WAT     H1 8191   3.603   1.683   2.490 -0.5521 -0.1751  2.1339
 2660WAT     H2 8192   3.736   1.620   2.526 -1.2982 -1.4117  2.7940
 2661WAT      O 8193   3.576   1.757   4.604 -0.1688  0.0108 -0.0606
 2661WAT     H1 8194   3.581   1.848   4.634  1.3492  0.5207 -1.6774
 2661WAT     H2 8195   3.489   1.750   4.563  0.0534  1.0266 -0.7493
 2662WAT      O 8196   0.661   5.463   2.610 -0.2190  0.0195 -0.0539
 2662WAT     H1 8197   0.617   5.390   2.652 -0.2628  0.0627 -0.0250
 2662WAT     H2 8198   0.670   5.529   2.679  1.5234 -0.6791  0.4423
 2663WAT      O 8199   3.442   1.945   0.115  0.2687  0.4273  0.0028
 2663WAT     H1 8200   3.368   1.890   0.088 -0.6158 -0.6707  4.0501
 2663WAT     H2 8201   3.401   2.027   0.144  0.7622  0.3846  0.8598
 2664WAT      O 8202   1.506   1.420   4.398 -0.0736  0.2089  0.2550
 2664WAT     H1 8203   1.594   1.414   4.359  0.7303  0.8514  1.8909
 2664WAT     H2 8204   1.456   1.472   4.334  0.2560 -1.4158 -1.4254
 2665WAT      O 8205   4.544   1.302   1.172  0.0383  0.2248 -0.1222
 2665WAT     H1 8206   4.610   1.236   1.192 -0.6512 -0.2769  0.5313
 2665WAT     H2 8207   4.537   1.354   1.253 -1.9042 -1.0697  0.6025
 2666WAT      O 8208   2.673   0.381   3.158 -0.2425 -0.1762  0.1873
 2666WAT     H1 8209   2.690   0.294   3.193 -1.4640 -0.4614  0.1356
 2666WAT     H2 8210   2.623   0.425   3.228  0.6287  0.5918  0.3389
 2667WAT      O 8211   4.618   4.055   3.002 -0.1695  0.0213 -0.8340
 2667WAT     H1 8212   4.653   4.045   2.914  0.0757 -1.9917 -0.5435
 2667WAT     H2 8213   4.690   4.029   3.060 -1.3353 -1.9531 -0.1681
 2668WAT      O 8214   2.204   3.312   1.007  0.0993 -0.5350  0.2748
 2668WAT     H1 8215   2.248   3.272   1.082  0.0833 -0.5566  0.2728
 2668WAT     H2 8216   2.247   3.272   0.931  1.0998  0.5585  0.2542
 2669WAT      O 8217   0.824   0.366   2.489 -0.3493 -0.0238  0.0974
 2669WAT     H1 8218   0.767   0.429   2.532 -0.3064  0.1372 -0.0813
 2669WAT     H2 8219   0.901   0.360   2.545 -0.4569 -0.0971  0.2382
 2670WAT      O 8220   1.038   5.568   2.634  0.0052  0.4263 -0.1386
 2670WAT     H1 8221   1.070   5.549   2.722  0.2405 -0.2518 -0.3680
 2670WAT     H2 8222   0.975   5.639   2.647 -2.3386 -1.7076  1.0337
 2671WAT      O 8223   3.728   1.072   2.258  0.4008 -0.1467  0.5315
 2671WAT     H1 8224   3.671   0.998   2.238  0.1104  0.2738 -0.2194
 2671WAT     H2 8225   3.817   1.040   2.239  0.1928  0.0223 -0.8102
 2672WAT      O 8226   3.175   1.937   0.279  0.1097 -0.2831 -0.2589
 2672WAT     H1 8227   3.218   2.023   0.277 -0.7003  0.1607  0.5114
 2672WAT     H2 8228   3.083   1.957   0.295 -0.3376 -1.2290 -1.5252
 2673WAT      O 8229   0.299   5.128   2.045  0.2512 -0.5895 -0.2029
 2673WAT     H1 8230   0.370   5.097   2.102  0.5603  0.1326 -0.1831
 2673WAT     H2 8231   0.334   5.207   2.005 -0.5417 -0.2422 -0.2195
 2674WAT      O 8232   4.420   0.545   1.558 -0.1244 -0.9125 -0.4576
 2674WAT     H1 8233   4.355   0.601   1.600  0.3617  0.0632 -0.9562
 2674WAT     H2 8234   4.403   0.555   1.464  1.9938  1.0111 -0.7312
 2675WAT      O 8235   2.429   2.751   3.168  0.6828  0.8168  0.2028
 2675WAT     H1 8236   2.339   2.722   3.154  1.2661 -0.8746 -0.1759
 2675WAT     H2 8237   2.420   2.844   3.192 -1.2471  0.3479  1.5104
 2676WAT      O 8238   2.314   4.250   1.736  0.0676 -0.4238  0.8303
 2676WAT     H1 8239   2.303   4.332   1.687 -1.1359 -0.8095  0.4243
 2676WAT     H2 8240   2.314   4.277   1.828  0.1019  0.0698  0.6914
 2677WAT      O 8241   2.208   0.292   3.444  0.1116 -0.0436  0.0389
 2677WAT     H1 8242   2.152   0.342   3.385 -1.5866 -0.8758  0.8994
 2677WAT     H2 8243   2.164   0.208   3.454  2.0753 -1.1582 -0.0968
 2678WAT      O 8244   3.542   1.309   1.971  0.4808 -0.1823 -0.2677
 2678WAT     H1 8245   3.578   1.221   1.961  0.2847 -0.1497 -1.3715
 2678WAT     H2 8246   3.473   1.314   1.905 -1.7038 -0.2985  1.8608
 2679WAT      O 8247   3.095   5.114   3.643  0.3097  0.1011 -0.4856
 2679WAT     H1 8248   3.135   5.038   3.601  0.4198 -0.6690  0.9703
 2679WAT     H2 8249   3.166   5.177   3.653  0.6786 -0.4161  0.1559
 2680WAT      O 8250   0.130   2.596   4.555 -0.1447 -0.4335  0.0291
 2680WAT     H1 8251   0.104   2.505   4.545 -0.5021 -0.2489 -0.8266
 2680WAT     H2 8252   0.185   2.614   4.479  1.5000 -0.4562  1.1641
 2681WAT      O 8253   2.064   1.975   2.504  0.1552 -0.0666  0.1238
 2681WAT     H1 8254   2.123   1.901   2.486 -0.0685 -0.3902  0.6780
 2681WAT     H2 8255   2.068   1.985   2.599  1.5904  1.8051 -0.0646
 2682WAT      O 8256   1.931   1.633   2.610  0.5366  0.1706  0.3554
 2682WAT     H1 8257   2.020   1.629   2.645  0.7899  0.0996 -0.2973
 2682WAT     H2 8258   1.942   1.639   2.515 -0.1319  1.1427  0.3205
 2683WAT      O 8259   4.642   0.792   1.415  0.5454  0.3623  0.2708
 2683WAT     H1 8260   4.606   0.873   1.452  0.8737  1.4976 -1.7146
 2683WAT     H2 8261   4.567   0.732   1.413 -0.2769  1.3652 -0.2010
 2684WAT      O 8262   3.773   3.644   0.980  0.2573 -0.1052 -0.4271
 2684WAT     H1 8263   3.757   3.640   1.074  1.2790  1.5227 -0.1452
 2684WAT     H2 8264   3.819   3.562   0.960 -0.3004 -0.6328  0.3966
 2685WAT      O 8265   4.154   1.899   4.992 -0.6097 -0.3447 -0.1423
 2685WAT     H1 8266   4.226   1.960   4.980 -2.0216  1.1956 -1.1125
 2685WAT     H2 8267   4.159   1.840   4.917 -0.5430 -0.0590 -0.3609
 2686WAT      O 8268   4.247   2.197   2.189 -0.9784 -0.0631  0.0545
 2686WAT     H1 8269   4.224   2.264   2.125 -0.8102  0.3003  0.3680
 2686WAT     H2 8270   4.164   2.155   2.211 -1.5504  1.8882  1.9040
 2687WAT      O 8271   2.337   1.414   2.622  0.0042  0.5196  0.2506
 2687WAT     H1 8272   2.305   1.505   2.626 -0.3801  0.5582 -2.0884
 2687WAT     H2 8273   2.428   1.419   2.650  0.3408  1.8686 -0.9754
 2688WAT      O 8274   1.980   3.179   5.339  0.1980  0.2439  0.0150
 2688WAT     H1 8275   2.003   3.265   5.374 -0.5089  0.1499  0.7472
 2688WAT     H2 8276   1.976   3.192   5.244 -1.9524  1.5739  0.2145
 2689WAT      O 8277   4.755   5.492   3.978 -0.1857 -0.4608 -0.2496
 2689WAT     H1 8278   4.771   5.564   4.038 -0.1338 -0.2376 -0.5295
 2689WAT     H2 8279   4.840   5.449   3.970 -0.4266 -1.1416  0.6660
 2690WAT      O 8280   3.140   1.869   1.721 -0.1695  0.3737  0.4461
 2690WAT     H1 8281   3.135   1.783   1.678  0.0282  1.2038 -1.3090
 2690WAT     H2 8282   3.166   1.848   1.811 -1.4498 -1.4942  0.4543
 2691WAT      O 8283   3.575   4.821   3.865  0.5617 -0.0371  0.3920
 2691WAT     H1 8284   3.563   4.837   3.771 -2.8067 -1.7158  0.3614
 2691WAT     H2 8285   3.598   4.906   3.902 -4.0294  2.2871 -1.2578
 2692WAT      O 8286   1.372   1.719   1.416  0.0779  0.1676 -0.0578
 2692WAT     H1 8287   1.384   1.624   1.428 -1.4482  0.1672  1.9643
 2692WAT     H2 8288   1.375   1.755   1.504 -3.5910  1.4336 -0.2753
 2693WAT      O 8289   0.163   1.568   1.391 -0.7660 -0.5572  0.1622
 2693WAT     H1 8290   0.244   1.542   1.347 -0.4066  2.1286 -0.9502
 2693WAT     H2 8291   0.167   1.525   1.477  1.7870 -0.5579  0.1064
 2694WAT      O 8292   1.825   1.354   2.080 -0.0491 -0.2952 -0.1270
 2694WAT     H1 8293   1.910   1.398   2.078  0.1187 -0.6165 -0.1425
 2694WAT     H2 8294   1.765   1.420   2.111  0.4276 -0.4160  1.1109
 2695WAT      O 8295   4.973   1.986   3.279 -0.3959 -0.2670 -0.1704
 2695WAT     H1 8296   4.919   1.931   3.336  0.7448 -1.7111 -0.4271
 2695WAT     H2 8297   5.021   2.043   3.340 -1.4235  0.3349  0.1081
 2696WAT      O 8298   1.490   2.289   1.803  0.2219  0.0416 -0.3683
 2696WAT     H1 8299   1.479   2.203   1.842 -0.7087  1.1965  2.1085
 2696WAT     H2 8300   1.426   2.291   1.731 -0.3041 -1.0441  0.0506
 2697WAT      O 8301   2.684   4.809   1.537 -0.1011  0.0968  0.4396
 2697WAT     H1 8302   2.641   4.742   1.590  0.1461  1.8756  3.0995
 2697WAT     H2 8303   2.611   4.857   1.496 -0.5511  0.7550  1.9200
 2698WAT      O 8304   3.646   3.589   2.216  0.0565 -0.1247 -0.6602
 2698WAT     H1 8305   3.711   3.539   2.167  0.1332 -1.7368  1.0024
 2698WAT     H2 8306   3.584   3.524   2.249  1.3396  0.3828  3.4026
 2699WAT      O 8307   1.903   0.089   1.942  0.5635 -0.3851 -0.5699
 2699WAT     H1 8308   1.947   0.004   1.935 -1.5596 -1.8323  1.7122
 2699WAT     H2 8309   1.816   0.068   1.977  0.0668  2.7851  0.4353
 2700WAT      O 8310   0.473   1.238   2.624  0.0848 -0.0843  0.5502
 2700WAT     H1 8311   0.411   1.298   2.667 -0.2858 -1.6954  2.3806
 2700WAT     H2 8312   0.553   1.290   2.613 -1.0807  1.5889 -0.5313
 2701WAT      O 8313   1.164   0.372   1.155  0.1962 -0.2724 -0.5007
 2701WAT     H1 8314   1.087   0.412   1.115  0.0409 -0.5372 -0.4641
 2701WAT     H2 8315   1.138   0.282   1.173 -0.2771  0.2377  1.6222
 2702WAT      O 8316   1.039   0.967   2.270  0.0147  0.1652  0.1254
 2702WAT     H1 8317   1.004   1.055   2.279  0.8708  0.5513 -0.2154
 2702WAT     H2 8318   0.981   0.912   2.324 -1.1750  0.7503 -0.5062
 2703WAT      O 8319   1.456   1.900   1.179 -0.2357 -0.1865 -0.2249
 2703WAT     H1 8320   1.426   1.883   1.090 -0.7920  0.2005 -0.1129
 2703WAT     H2 8321   1.388   1.865   1.235 -0.0616 -0.0990  0.0439
 2704WAT      O 8322   2.997   1.826   4.140  0.3095 -0.6744 -0.1430
 2704WAT     H1 8323   2.992   1.904   4.085 -0.5883 -1.1124 -0.7168
 2704WAT     H2 8324   3.049   1.853   4.216  0.2750  0.3879 -0.4786
 2705WAT      O 8325   2.079   0.840   1.562 -0.0379 -0.3543 -0.2700
 2705WAT     H1 8326   2.098   0.748   1.540  0.2678  0.2521 -2.8980
 2705WAT     H2 8327   2.139   0.860   1.633  0.2756 -2.0332 -0.0029
 2706WAT      O 8328   1.711   1.843   0.358  0.5417  0.2160 -0.4481
 2706WAT     H1 8329   1.772   1.796   0.300 -0.6484 -1.0275 -0.7510
 2706WAT     H2 8330   1.639   1.781   0.372 -0.8335  1.7571 -0.3983
 2707WAT      O 8331   3.516   1.231   1.031 -0.1456  0.1577  0.1413
 2707WAT     H1 8332   3.449   1.285   0.989  0.0600 -0.7121 -1.3689
 2707WAT     H2 8333   3.599   1.266   1.000  0.0661  0.3313  0.8776
 2708WAT      O 8334   4.586   2.889   5.748  0.3965  0.6360 -0.3478
 2708WAT     H1 8335   4.598   2.797   5.722 -0.4182  0.3898  0.1115
 2708WAT     H2 8336   4.622   2.939   5.675  0.6153 -0.0476 -0.7191
 2709WAT      O 8337   4.365   2.877   3.040 -0.3576 -0.8331 -0.4394
 2709WAT     H1 8338   4.382   2.838   3.126 -0.4613  0.0674 -0.0028
 2709WAT     H2 8339   4.432   2.944   3.030 -0.4214 -0.8472 -1.0172
 2710WAT      O 8340   4.082   1.153   3.099 -0.1097 -0.6193 -0.2165
 2710WAT     H1 8341   4.061   1.206   3.022 -0.7058  1.4412  1.2617
 2710WAT     H2 8342   4.169   1.183   3.126 -0.3706 -0.4974  0.5266
 2711WAT      O 8343   1.246   2.877   3.239 -0.4037  0.0804  0.2453
 2711WAT     H1 8344   1.183   2.891   3.310  0.1184  1.2853  0.5068
 2711WAT     H2 8345   1.323   2.841   3.283 -1.2756 -2.5978 -0.2444
 2712WAT      O 8346   1.295   1.805   4.361  0.2232  0.0604 -0.6093
 2712WAT     H1 8347   1.351   1.849   4.425  0.0624 -1.1477  0.4163
 2712WAT     H2 8348   1.256   1.732   4.409 -2.1446  0.7509 -1.3272
 2713WAT      O 8349   4.879   4.987   4.103  0.1414 -0.1843  0.5447
 2713WAT     H1 8350   4.887   5.076   4.136  1.5541  0.0983 -0.4531
 2713WAT     H2 8351   4.960   4.972   4.054 -0.8448 -1.3639 -0.8316
 2714WAT      O 8352   2.691   4.977   2.380  0.8396 -0.0048 -0.3754
 2714WAT     H1 8353   2.706   4.943   2.292  1.7558 -1.1383  0.1998
 2714WAT     H2 8354   2.688   4.900   2.436  0.3813  0.7067  0.6160
 2715WAT      O 8355   2.772   4.494   2.649  0.0045  0.0682  0.2545
 2715WAT     H1 8356   2.824   4.435   2.595  1.0988  0.3877  0.9087
 2715WAT     H2 8357   2.824   4.505   2.729 -1.3283 -0.0027  1.1666
 2716WAT      O 8358   1.448   5.241   4.069  0.3027 -0.0486  0.0263
 2716WAT     H1 8359   1.423   5.150   4.051 -0.5342  0.2758 -0.5141
 2716WAT     H2 8360   1.470   5.277   3.983 -0.0523  0.4486  0.1396
 2717WAT      O 8361   1.385   4.973   1.786  0.4182  0.3123 -0.4951
 2717WAT     H1 8362   1.339   4.922   1.719 -0.0458  0.8763 -0.6199
 2717WAT     H2 8363   1.379   4.920   1.865 -0.5234  0.3912 -0.4924
 2718WAT      O 8364   2.890   1.876   4.536  0.1306 -0.2952  0.0348
 2718WAT     H1 8365   2.841   1.858   4.616 -0.2846  0.8662  0.0675
 2718WAT     H2 8366   2.852   1.817   4.471 -1.0568  0.3039  0.1569
 2719WAT      O 8367   1.971   1.782   2.126 -0.2544  0.1847  0.6191
 2719WAT     H1 8368   1.952   1.726   2.201 -0.4811  0.6959  0.9523
 2719WAT     H2 8369   1.905   1.758   2.060  0.7288 -1.1609  0.0847
 2720WAT      O 8370   0.991   2.460   1.554  0.3152  0.6202  0.1083
 2720WAT     H1 8371   0.941   2.382   1.573 -0.8535  1.4631  0.5760
 2720WAT     H2 8372   0.926   2.530   1.549  1.1489  1.3382 -1.7756
 2721WAT      O 8373   3.532   2.802   3.176 -0.0516  0.1605 -0.1240
 2721WAT     H1 8374   3.615   2.827   3.218  0.3024 -2.0899  0.6823
 2721WAT     H2 8375   3.503   2.881   3.131  2.1850  1.2241  0.1469
 2722WAT      O 8376   2.130   1.621   1.868 -0.1430  0.1435 -0.0372
 2722WAT     H1 8377   2.075   1.698   1.885 -1.2638 -0.2753 -1.4961
 2722WAT     H2 8378   2.068   1.552   1.844  0.9252 -0.8508 -0.0134
 2723WAT      O 8379   3.004   2.299  -0.007 -0.7881  0.0691  0.2458
 2723WAT     H1 8380   2.983   2.291   0.086 -0.9697 -0.6593  0.1488
 2723WAT     H2 8381   2.926   2.266  -0.052 -0.2577 -0.6793 -0.1417
 2724WAT      O 8382   3.160   0.799   2.819 -0.7106  0.1092  0.3996
 2724WAT     H1 8383   3.132   0.820   2.909 -0.2599 -0.4085  0.6669
 2724WAT     H2 8384   3.171   0.704   2.820 -0.0028  0.1884 -0.0111
 2725WAT      O 8385   3.636   2.672   4.055  0.0381  0.0517  0.1015
 2725WAT     H1 8386   3.627   2.613   4.129  1.2380  0.8905  0.9628
 2725WAT     H2 8387   3.609   2.758   4.089 -0.3306  0.2651 -0.7083
 2726WAT      O 8388   1.184   1.091   3.677  0.3086 -0.1615 -0.7647
 2726WAT     H1 8389   1.266   1.044   3.667  0.6192  0.5258 -1.5709
 2726WAT     H2 8390   1.197   1.148   3.752 -0.3519 -1.8913  0.7464
 2727WAT      O 8391   3.541   4.117   1.790 -0.7472  0.0911  0.6076
 2727WAT     H1 8392   3.523   4.041   1.847 -0.9074 -0.4405 -0.1422
 2727WAT     H2 8393   3.620   4.093   1.742 -1.7607 -0.3611 -0.8996
 2728WAT      O 8394   0.745   1.626   1.758 -0.3048  0.2142  0.5837
 2728WAT     H1 8395   0.736   1.670   1.843 -0.1238  0.8550  0.2786
 2728WAT     H2 8396   0.655   1.604   1.733 -0.3660  0.1002  0.9044
 2729WAT      O 8397   2.358   0.127   3.933  0.4833  0.1405 -0.4652
 2729WAT     H1 8398   2.450   0.149   3.949  0.7407 -0.3808 -1.1902
 2729WAT     H2 8399   2.328   0.194   3.873  0.3724  0.3488 -0.1765
 2730WAT      O 8400   0.950   2.995   0.773  0.5727 -0.0540 -0.1590
 2730WAT     H1 8401   0.974   3.023   0.684  2.5440 -0.2594  0.2613
 2730WAT     H2 8402   0.862   3.029   0.786  0.7471  1.0889 -1.7240
 2731WAT      O 8403   2.496   2.514   2.943  0.3203  0.3758 -0.4650
 2731WAT     H1 8404   2.424   2.504   3.006  0.1530 -2.0741 -0.9252
 2731WAT     H2 8405   2.452   2.541   2.862 -0.1256 -0.9650 -0.7051
 2732WAT      O 8406   3.655   5.425   1.631  0.3573 -0.1477  0.4430
 2732WAT     H1 8407   3.686   5.368   1.702  1.6836 -1.0328 -0.7836
 2732WAT     H2 8408   3.580   5.471   1.668  0.7491 -0.8981  2.2721
 2733WAT      O 8409   0.339   0.494   3.111 -0.4917 -0.6703  0.2704
 2733WAT     H1 8410   0.360   0.503   3.204 -0.0625  1.6382 -0.0040
 2733WAT     H2 8411   0.403   0.429   3.080  0.9942  0.3233  1.1059
 2734WAT      O 8412   2.356   0.595   3.136  0.1953 -0.7543 -0.2155
 2734WAT     H1 8413   2.377   0.580   3.229  0.1437  1.6750  0.2352
 2734WAT     H2 8414   2.429   0.647   3.103 -0.3532 -0.6247 -1.2619
 2735WAT      O 8415   0.436   0.290   4.005 -0.0349  0.8668 -0.2706
 2735WAT     H1 8416   0.472   0.215   3.957  1.1321  1.4952 -0.3943
 2735WAT     H2 8417   0.356   0.256   4.045  1.3110 -0.9209  1.0454
 2736WAT      O 8418   3.521   2.070   4.713 -1.3937 -0.4978 -0.5893
 2736WAT     H1 8419   3.603   2.113   4.736  0.4052 -2.7895 -2.2514
 2736WAT     H2 8420   3.476   2.058   4.797  2.0935 -3.2104  1.1604
 2737WAT      O 8421   2.705   0.411   2.878  0.7539 -0.1921 -0.0790
 2737WAT     H1 8422   2.675   0.421   2.968  1.5931 -0.6919  0.2729
 2737WAT     H2 8423   2.697   0.317   2.861  0.5688 -0.0974 -0.5457
 2738WAT      O 8424   4.844   0.883   2.285  0.4519  1.0877  0.0275
 2738WAT     H1 8425   4.858   0.789   2.274  0.6087  1.0131  0.7590
 2738WAT     H2 8426   4.837   0.918   2.196  1.4595  0.5445 -0.2746
 2739WAT      O 8427   2.911   0.481   3.740 -0.9789 -0.1674 -0.2802
 2739WAT     H1 8428   2.932   0.388   3.751 -2.8139 -0.4914  0.9840
 2739WAT     H2 8429   2.979   0.514   3.682  1.0062 -1.7943  0.9822
 2740WAT      O 8430   3.630   0.415   2.621  0.0583  0.1581 -0.0089
 2740WAT     H1 8431   3.593   0.486   2.672 -0.4053 -1.1479  1.5674
 2740WAT     H2 8432   3.639   0.450   2.532  1.2026  2.6113  1.0120
 2741WAT      O 8433   2.905   1.436   1.308  0.2412  0.6963  0.0968
 2741WAT     H1 8434   2.882   1.434   1.215 -0.1603 -0.1630  0.2052
 2741WAT     H2 8435   2.990   1.479   1.311  1.0124 -0.6913 -0.8321
 2742WAT      O 8436   2.331   3.028   3.973  0.5093 -0.1286  0.2340
 2742WAT     H1 8437   2.282   3.085   4.032 -0.2757  0.1966 -0.7010
 2742WAT     H2 8438   2.273   2.954   3.956  0.7489 -0.2521 -0.0708
 2743WAT      O 8439   1.239   5.262   1.733 -0.0183  0.4024 -0.1032
 2743WAT     H1 8440   1.232   5.167   1.741  0.9081  0.3062 -0.3272
 2743WAT     H2 8441   1.149   5.292   1.724 -0.4909 -0.2730  1.8502
 2744WAT      O 8442   4.640   1.226   1.735 -0.0303 -0.2034  1.0181
 2744WAT     H1 8443   4.549   1.254   1.729 -0.9823 -3.1897  0.1831
 2744WAT     H2 8444   4.676   1.243   1.647  0.5175  1.6313  1.5397
 2745WAT      O 8445   4.349   2.180   2.460 -0.5324  0.6118  0.7790
 2745WAT     H1 8446   4.302   2.192   2.378 -1.0451  1.2534  1.1606
 2745WAT     H2 8447   4.357   2.085   2.469 -2.5205  0.4507  1.1279
 2746WAT      O 8448   1.357   3.870   4.919  0.4488  0.0562 -0.8460
 2746WAT     H1 8449   1.435   3.917   4.948 -0.1459  1.1862 -1.0341
 2746WAT     H2 8450   1.300   3.867   4.996  0.1415  0.3758 -1.0579
 2747WAT      O 8451   4.166   0.683   3.497 -0.5713 -0.4510  0.4318
 2747WAT     H1 8452   4.081   0.645   3.517 -0.5005 -0.8667 -0.0526
 2747WAT     H2 8453   4.150   0.777   3.493 -1.2092 -0.5880 -0.5811
 2748WAT      O 8454   4.870   1.804   5.490  0.3835 -0.0566 -0.3918
 2748WAT     H1 8455   4.943   1.858   5.523 -0.2645  1.0045 -0.6461
 2748WAT     H2 8456   4.898   1.777   5.402  0.9167 -0.5373 -0.0771
 2749WAT      O 8457   0.995   5.530   3.888 -0.0590  0.3270 -0.4975
 2749WAT     H1 8458   1.076   5.479   3.886  0.7199  1.2492  2.2641
 2749WAT     H2 8459   0.934   5.477   3.941 -0.8990  0.1591 -1.5962
 2750WAT      O 8460   1.756   3.457   1.667  0.1509 -0.1137 -0.1270
 2750WAT     H1 8461   1.842   3.420   1.645 -0.5121 -0.3965 -2.5501
 2750WAT     H2 8462   1.693   3.392   1.634 -1.0154  1.8826 -2.1156
 2751WAT      O 8463   1.357   0.964   2.294  0.2145  0.3278  0.2523
 2751WAT     H1 8464   1.264   0.941   2.298  0.6818 -1.5112  2.1215
 2751WAT     H2 8465   1.377   0.996   2.382  1.5000  0.0907  0.0574
 2752WAT      O 8466   1.656   3.467   2.564 -0.1134 -0.2017  0.4193
 2752WAT     H1 8467   1.619   3.382   2.540  0.4681 -0.1741 -0.6362
 2752WAT     H2 8468   1.748   3.448   2.582  0.1757  0.2922 -0.4659
 2753WAT      O 8469   1.936   1.235   2.939  0.0689 -0.0718 -0.2406
 2753WAT     H1 8470   1.860   1.217   2.884 -0.8347  1.2592  0.5172
 2753WAT     H2 8471   1.980   1.308   2.896 -0.3013  0.5735  0.4539
 2754WAT      O 8472   3.557   2.227   1.082 -0.2703  0.6109 -0.3346
 2754WAT     H1 8473   3.527   2.137   1.081 -3.9504  1.6747 -0.0790
 2754WAT     H2 8474   3.597   2.238   1.168  3.5748 -1.5489 -1.6188
 2755WAT      O 8475   1.096   3.356   5.509  0.2897  0.0945 -0.7311
 2755WAT     H1 8476   1.146   3.302   5.448 -0.2749  0.9381 -1.9852
 2755WAT     H2 8477   1.015   3.376   5.462  0.6793  2.4061 -0.5366
 2756WAT      O 8478   3.949   0.695   3.186 -0.0529 -0.4399  0.0349
 2756WAT     H1 8479   4.008   0.752   3.137 -0.7142  0.0052 -0.2585
 2756WAT     H2 8480   3.894   0.655   3.119 -1.1776  0.4166  0.4205
 2757WAT      O 8481   4.058   0.584   2.587  0.0201  0.0668  0.2683
 2757WAT     H1 8482   4.070   0.613   2.497  2.3778 -2.5480 -0.4125
 2757WAT     H2 8483   4.147   0.574   2.621 -0.7251 -1.6773  1.9115
 2758WAT      O 8484   0.975   2.311   0.601  0.2904  0.6680  0.2358
 2758WAT     H1 8485   0.951   2.230   0.645 -1.3057  0.9906  0.0241
 2758WAT     H2 8486   0.989   2.374   0.672  0.1956  0.5488  0.3594
 2759WAT      O 8487   2.122   2.564   2.540  0.6146 -0.4847  0.4555
 2759WAT     H1 8488   2.149   2.655   2.549  0.2054 -0.2114 -0.7970
 2759WAT     H2 8489   2.113   2.551   2.445 -1.1869 -1.2751  0.6904
 2760WAT      O 8490   3.947   3.824   5.669 -0.1906 -0.1223 -0.2655
 2760WAT     H1 8491   4.028   3.788   5.633 -0.3505 -1.3311  0.5424
 2760WAT     H2 8492   3.878   3.770   5.631 -0.3525 -1.5467  1.8819
 2761WAT      O 8493   3.764   2.812   4.921  0.8874 -0.2023 -0.2813
 2761WAT     H1 8494   3.833   2.772   4.868 -0.2054 -0.0019 -1.9313
 2761WAT     H2 8495   3.801   2.817   5.009  2.6429 -0.8723 -0.9416
 2762WAT      O 8496   2.724   1.685   0.654  0.1745 -0.0582  0.8281
 2762WAT     H1 8497   2.704   1.777   0.635  1.2997 -0.0033 -0.2536
 2762WAT     H2 8498   2.671   1.635   0.591  0.3432 -0.0963  0.7149
 2763WAT      O 8499   4.092   3.814   1.452 -0.8702 -0.4390 -0.0355
 2763WAT     H1 8500   4.165   3.875   1.455 -0.5659 -0.6127 -2.0816
 2763WAT     H2 8501   4.086   3.778   1.540  3.3545 -2.5390 -0.3385
 2764WAT      O 8502   3.608   0.354   1.440 -0.0266 -0.4375  0.1111
 2764WAT     H1 8503   3.700   0.329   1.440  0.7078  1.9459 -0.9135
 2764WAT     H2 8504   3.592   0.389   1.527  0.2091 -0.3229  0.1086
 2765WAT      O 8505   4.642   0.377   3.647  0.2221 -0.3567 -1.0447
 2765WAT     H1 8506   4.554   0.377   3.684  1.3129  0.4671  1.8052
 2765WAT     H2 8507   4.649   0.293   3.602 -1.1268 -1.6581  1.0049
 2766WAT      O 8508   4.671   0.045   3.820 -0.1116  0.7385  0.2825
 2766WAT     H1 8509   4.684  -0.047   3.844 -1.2647  0.9068  1.7084
 2766WAT     H2 8510   4.759   0.079   3.806  0.3403 -0.5320 -0.1112
 2767WAT      O 8511   3.403   1.557   1.901 -0.1161 -0.0770 -0.1255
 2767WAT     H1 8512   3.323   1.596   1.865  1.4941  1.8821 -1.7716
 2767WAT     H2 8513   3.465   1.557   1.828  1.9604  0.0883  1.5500
 2768WAT      O 8514   2.420   3.232   3.094 -0.5098  0.6924 -0.4555
 2768WAT     H1 8515   2.342   3.286   3.085 -0.1770  1.3762  0.6995
 2768WAT     H2 8516   2.475   3.278   3.157  0.8334  0.2151 -1.2403
 2769WAT      O 8517   0.926   4.171   2.691  0.5098 -0.8762 -0.1301
 2769WAT     H1 8518   0.920   4.117   2.770  2.6694 -0.2275  0.5717
 2769WAT     H2 8519   0.997   4.131   2.640 -1.3187 -1.7071 -2.1603
 2770WAT      O 8520   3.560   1.275   2.279  0.3326  0.3369 -0.3957
 2770WAT     H1 8521   3.626   1.207   2.266 -0.8515 -1.0323  0.3987
 2770WAT     H2 8522   3.532   1.298   2.190  0.2351 -0.7597 -0.6677
 2771WAT      O 8523   3.602   2.577   0.581 -0.0214  0.4733  0.6570
 2771WAT     H1 8524   3.684   2.621   0.606 -0.8148  1.5557  1.4586
 2771WAT     H2 8525   3.566   2.545   0.663 -0.1725 -0.4224  0.2479
 2772WAT      O 8526   2.062   0.755   2.581 -0.3310 -0.4467  0.1495
 2772WAT     H1 8527   1.982   0.808   2.588  0.6215  1.1244 -0.4109
 2772WAT     H2 8528   2.133   0.818   2.589  0.8861 -1.9268  1.3648
 2773WAT      O 8529   2.889   4.583   1.648  0.0262 -0.0647  0.2655
 2773WAT     H1 8530   2.805   4.625   1.668  0.7146  2.0081 -0.8657
 2773WAT     H2 8531   2.955   4.645   1.680  1.1153 -0.9814 -0.1499
 2774WAT      O 8532   2.570   3.302   4.249  0.1172  0.4129 -0.0419
 2774WAT     H1 8533   2.560   3.214   4.213 -0.3619  0.1859  0.6115
 2774WAT     H2 8534   2.588   3.357   4.173 -2.6729  0.2650 -0.9515
 2775WAT      O 8535   4.226   0.958   2.192  0.2495 -0.0892 -0.0898
 2775WAT     H1 8536   4.317   0.932   2.202 -0.4815 -2.2109  2.2661
 2775WAT     H2 8537   4.208   0.949   2.098  1.4463 -3.7396 -0.1328
 2776WAT      O 8538   3.565   5.102   3.838  0.6598  0.0554 -0.1965
 2776WAT     H1 8539   3.475   5.133   3.838  0.5286 -0.2170  1.6923
 2776WAT     H2 8540   3.618   5.181   3.833  0.3133  0.4200  1.5345
 2777WAT      O 8541   0.275   4.035   2.524 -0.1097 -0.0273  0.1723
 2777WAT     H1 8542   0.308   3.945   2.522 -0.0054  0.0168 -0.1568
 2777WAT     H2 8543   0.301   4.068   2.609 -0.6868 -0.5105  0.5425
 2778WAT      O 8544   3.906   0.631   3.458  0.0133 -0.2799 -0.3630
 2778WAT     H1 8545   3.925   0.635   3.365  0.1022 -2.4283 -0.4833
 2778WAT     H2 8546   3.837   0.697   3.471  1.7016  1.8091 -1.4241
 2779WAT      O 8547   0.879   2.037   0.993  0.0722 -0.0086  0.2337
 2779WAT     H1 8548   0.836   1.962   1.032 -0.1487  0.3491  0.6772
 2779WAT     H2 8549   0.819   2.111   1.007  0.3804  0.2960 -0.0057
 2780WAT      O 8550   1.271   2.158   1.365 -0.5715 -0.0514  0.0596
 2780WAT     H1 8551   1.254   2.067   1.343  1.6211 -0.4945 -0.0967
 2780WAT     H2 8552   1.225   2.209   1.299  2.2340 -1.2346 -3.0829
 2781WAT      O 8553   2.940   2.340   2.089  0.0765 -0.0235 -0.3992
 2781WAT     H1 8554   2.950   2.248   2.112 -1.4507  0.0741  0.8418
 2781WAT     H2 8555   2.895   2.339   2.004  1.6694 -0.3918 -1.2691
 2782WAT      O 8556   3.784   1.215   2.532 -0.1604  0.8034 -0.0461
 2782WAT     H1 8557   3.855   1.184   2.588 -0.4901  0.1423  0.0199
 2782WAT     H2 8558   3.787   1.157   2.455 -0.9741  0.3932  0.2113
 2783WAT      O 8559   2.565   1.842   5.149  0.6273  0.5642 -0.3368
 2783WAT     H1 8560   2.609   1.923   5.120 -0.1459  0.9089 -0.5791
 2783WAT     H2 8561   2.489   1.835   5.091  1.5247 -1.1944 -1.3940
 2784WAT      O 8562   3.684   1.466   3.810 -0.1038  0.2210 -0.2119
 2784WAT     H1 8563   3.646   1.407   3.875  1.2136 -0.9494 -0.4792
 2784WAT     H2 8564   3.677   1.553   3.850  1.9469 -0.6115  2.1459
 2785WAT      O 8565   2.763   1.678   0.908  0.4330  0.2549 -0.1031
 2785WAT     H1 8566   2.742   1.701   0.818  2.1944 -0.7752 -0.8334
 2785WAT     H2 8567   2.761   1.582   0.909 -1.5068  0.2395  1.4963
 2786WAT      O 8568   1.564   2.259   2.707  0.3093  0.0554  0.0518
 2786WAT     H1 8569   1.517   2.277   2.625 -0.1081  1.5491  0.6036
 2786WAT     H2 8570   1.505   2.202   2.756 -0.8879  1.7228  0.6376
 2787WAT      O 8571   2.333   0.304   1.374 -0.0489  0.3764 -0.1758
 2787WAT     H1 8572   2.363   0.215   1.393  0.6503  0.9615  1.5672
 2787WAT     H2 8573   2.410   0.348   1.336 -0.0021  0.6220  0.2052
 2788WAT      O 8574   0.650   4.232   5.616 -0.2262  0.3823  0.0917
 2788WAT     H1 8575   0.571   4.218   5.564 -0.6516 -1.3459  1.1279
 2788WAT     H2 8576   0.618   4.270   5.698  0.1903  0.9918 -0.0210
 2789WAT      O 8577   2.171   1.612   4.199 -0.5572 -0.4691  0.2205
 2789WAT     H1 8578   2.193   1.701   4.226  0.3171 -1.0064  1.3716
 2789WAT     H2 8579   2.141   1.569   4.279  0.4805 -1.6268  0.0325
 2790WAT      O 8580   0.378   4.630   2.282  0.0032  0.2042  0.0161
 2790WAT     H1 8581   0.350   4.711   2.325 -0.2810 -0.5537  1.2827
 2790WAT     H2 8582   0.324   4.626   2.203  0.7907  1.7933 -0.6607
 2791WAT      O 8583   3.146   1.654   2.301 -0.8460 -0.9711  0.3757
 2791WAT     H1 8584   3.230   1.621   2.272 -0.9679  0.2573 -1.5793
 2791WAT     H2 8585   3.087   1.639   2.227 -1.7573  0.2719  0.8103
 2792WAT      O 8586   0.449   1.692   3.201  0.3538 -0.4171 -0.2376
 2792WAT     H1 8587   0.470   1.692   3.107  0.0364  1.1395 -0.3293
 2792WAT     H2 8588   0.494   1.769   3.235 -1.4226  0.3633  0.4384
 2793WAT      O 8589   2.705   3.865   2.434 -0.4641  0.4909  0.3154
 2793WAT     H1 8590   2.717   3.826   2.520  1.1953  0.2467  0.0144
 2793WAT     H2 8591   2.611   3.861   2.418 -0.5493 -1.7912  1.0386
 2794WAT      O 8592   1.891   3.263   2.948  0.2880  0.4423 -0.5807
 2794WAT     H1 8593   1.886   3.355   2.975 -1.1101  1.3911 -3.6760
 2794WAT     H2 8594   1.805   3.227   2.968  0.0989  0.4395 -1.3816
 2795WAT      O 8595   1.792   2.935   2.335  0.2631 -0.5581 -0.5723
 2795WAT     H1 8596   1.784   2.919   2.241 -0.9385  2.0779 -1.0013
 2795WAT     H2 8597   1.713   2.895   2.372  0.7240 -1.5749 -0.6352
 2796WAT      O 8598   2.928   4.505   1.939  0.1073 -0.8018  0.1552
 2796WAT     H1 8599   3.002   4.471   1.990 -0.6630 -2.4658  0.2320
 2796WAT     H2 8600   2.898   4.431   1.888 -1.9123 -0.3616  0.5972
 2797WAT      O 8601   1.658   5.430   3.413  0.4122 -0.8113  0.7452
 2797WAT     H1 8602   1.669   5.417   3.319  2.0613 -0.1708  0.8169
 2797WAT     H2 8603   1.564   5.416   3.428 -0.4939  1.8498 -1.4600
 2798WAT      O 8604   1.272   5.222   2.387 -0.1525  0.5157  0.7191
 2798WAT     H1 8605   1.186   5.189   2.363  0.0314  0.1631  0.5290
 2798WAT     H2 8606   1.259   5.316   2.401 -0.0954  0.9854 -1.7705
 2799WAT      O 8607   1.485   4.170   5.593  0.2694 -0.0169  0.9681
 2799WAT     H1 8608   1.418   4.202   5.533  2.7592  3.1334 -0.4940
 2799WAT     H2 8609   1.563   4.158   5.538  1.7235 -0.4634  2.9870
 2800WAT      O 8610   3.540   3.977   4.156  0.1997 -0.1450 -0.0804
 2800WAT     H1 8611   3.555   3.995   4.063 -1.7065 -0.4192 -0.4805
 2800WAT     H2 8612   3.508   3.887   4.158 -3.5802  0.9953  0.2794
 2801WAT      O 8613   0.257   4.079   3.329 -0.6533  0.1196  0.1562
 2801WAT     H1 8614   0.347   4.067   3.359  0.2120 -1.6119 -2.6775
 2801WAT     H2 8615   0.230   4.162   3.367  2.6853  1.4698 -0.0136
 2802WAT      O 8616   3.787   3.086   1.312  0.3893  0.3656 -0.4786
 2802WAT     H1 8617   3.859   3.098   1.251  0.8391 -1.1011 -0.2647
 2802WAT     H2 8618   3.800   3.154   1.378  2.8108 -1.0915  0.6923
 2803WAT      O 8619   4.585   5.663   2.160  0.2691  0.2930 -0.2298
 2803WAT     H1 8620   4.590   5.571   2.134 -1.3267  0.5465 -1.5812
 2803WAT     H2 8621   4.513   5.666   2.222  1.3190  0.4207  1.0434
 2804WAT      O 8622   1.304   0.194   1.550 -0.0686  0.6967 -0.3360
 2804WAT     H1 8623   1.258   0.270   1.585  1.3533  0.5522  2.1511
 2804WAT     H2 8624   1.397   0.218   1.556  0.3424 -0.5572 -1.2332
 2805WAT      O 8625   4.402   0.081   3.681  0.1312  0.1423 -0.3126
 2805WAT     H1 8626   4.490   0.043   3.690  0.2473 -0.0283 -1.9515
 2805WAT     H2 8627   4.356   0.021   3.623  0.2885  2.3660 -2.9036
 2806WAT      O 8628   1.438   4.289   2.977 -0.0909 -0.2361  0.1172
 2806WAT     H1 8629   1.472   4.365   3.025 -0.7269  0.6346 -0.7791
 2806WAT     H2 8630   1.347   4.311   2.958 -0.2245 -1.1339 -0.3568
 2807WAT      O 8631   2.372   1.450   3.072  0.3451 -0.0257 -0.0277
 2807WAT     H1 8632   2.361   1.374   3.014 -2.0046  0.3963 -0.2097
 2807WAT     H2 8633   2.341   1.420   3.157  0.1530  0.5074  0.0913
 2808WAT      O 8634   2.423   5.119   3.020 -0.1980  1.0801 -0.0007
 2808WAT     H1 8635   2.490   5.052   3.003 -0.5317  0.8919 -0.6405
 2808WAT     H2 8636   2.419   5.169   2.938 -1.5776  0.4234 -0.3599
 2809WAT      O 8637   3.964   0.373   2.759 -0.3110  0.4736 -0.2801
 2809WAT     H1 8638   3.972   0.294   2.707  0.3099  0.6923 -0.5241
 2809WAT     H2 8639   3.990   0.444   2.700  0.3113  0.7338  0.2940
 2810WAT      O 8640   4.110   0.490   2.175  0.1120 -0.2203 -0.6383
 2810WAT     H1 8641   4.052   0.421   2.143 -0.1235 -0.9075  1.1593
 2810WAT     H2 8642   4.181   0.443   2.219  0.5596  0.6574 -0.3973
 2811WAT      O 8643   1.855   3.986   3.127 -0.2577 -0.0760 -0.6439
 2811WAT     H1 8644   1.889   3.927   3.061 -0.9059  0.4214 -1.4368
 2811WAT     H2 8645   1.824   4.062   3.078 -0.0874  0.6193  0.2933
 2812WAT      O 8646   0.592   2.965   0.229 -0.2828  0.1292  0.8348
 2812WAT     H1 8647   0.683   2.936   0.238  0.6331  2.5053 -0.0746
 2812WAT     H2 8648   0.598   3.050   0.186 -3.0853 -0.7620 -1.6864
 2813WAT      O 8649   1.481   4.106   5.198 -0.2507 -0.0228  0.4503
 2813WAT     H1 8650   1.529   4.068   5.271 -0.6091  0.8556  1.1523
 2813WAT     H2 8651   1.510   4.055   5.122 -0.6038 -1.6128  1.3241
 2814WAT      O 8652   0.389   5.286   1.705 -0.2019 -0.0460  0.3120
 2814WAT     H1 8653   0.456   5.218   1.695  0.2334  0.4239 -0.0319
 2814WAT     H2 8654   0.397   5.339   1.626 -0.6208  0.3362  0.5207
 2815WAT      O 8655   2.390   5.282   2.419  0.1199  0.2513  0.1660
 2815WAT     H1 8656   2.403   5.338   2.496  1.6122 -0.7469  0.6752
 2815WAT     H2 8657   2.444   5.321   2.351  0.7611 -0.2460  0.3742
 2816WAT      O 8658   0.299   2.052   4.102 -0.3430 -0.4376 -0.2024
 2816WAT     H1 8659   0.264   2.004   4.027 -1.6520 -0.8986  0.6660
 2816WAT     H2 8660   0.387   2.017   4.113  0.0467 -0.0517 -1.7639
 2817WAT      O 8661   2.854   3.880   4.631  0.2209 -0.0852 -0.1090
 2817WAT     H1 8662   2.867   3.951   4.694  2.5380  0.0277 -0.6372
 2817WAT     H2 8663   2.894   3.804   4.672  0.4990 -0.3427 -0.8467
 2818WAT      O 8664   0.393   1.319   4.861  0.1829  0.2492  0.0445
 2818WAT     H1 8665   0.458   1.358   4.803  0.8051 -0.6258  0.1372
 2818WAT     H2 8666   0.348   1.255   4.807 -1.4212  1.6362 -0.3534
 2819WAT      O 8667   4.041   4.166   4.287 -0.1989 -0.2574 -0.2293
 2819WAT     H1 8668   4.101   4.148   4.215  1.2873 -0.4469  0.9989
 2819WAT     H2 8669   4.077   4.117   4.361 -1.1289  0.6887  0.8890
 2820WAT      O 8670   1.897   1.604   2.327 -0.0977 -0.3119  0.0512
 2820WAT     H1 8671   1.804   1.581   2.324 -0.2466  0.2400  0.3152
 2820WAT     H2 8672   1.941   1.524   2.357 -0.5676 -0.3529  0.6398
 2821WAT      O 8673   4.141   3.509   1.127  0.1835 -0.4167  0.0059
 2821WAT     H1 8674   4.134   3.598   1.093  0.7207  0.0538  1.0848
 2821WAT     H2 8675   4.129   3.518   1.221 -0.8101 -1.6346  0.0184
 2822WAT      O 8676   1.247   5.009   3.829 -0.4953  0.1730  0.0883
 2822WAT     H1 8677   1.267   4.917   3.813  0.3148  0.0972  1.3406
 2822WAT     H2 8678   1.205   5.010   3.915  0.2738  1.0397  0.4825
 2823WAT      O 8679   3.276   3.319   0.036 -0.8576 -0.1752 -0.1770
 2823WAT     H1 8680   3.181   3.312   0.031 -0.9340  1.2914 -1.9433
 2823WAT     H2 8681   3.293   3.414   0.042  0.4727 -0.4678  1.5812
 2824WAT      O 8682   0.315   1.704   4.556 -0.1961 -0.1020 -0.1761
 2824WAT     H1 8683   0.402   1.736   4.580  0.4291 -2.0382  0.3164
 2824WAT     H2 8684   0.326   1.609   4.549 -2.1198 -0.3115 -0.8040
 2825WAT      O 8685   4.669   3.151   2.158 -0.2061  0.1314 -0.0200
 2825WAT     H1 8686   4.663   3.242   2.128  0.1107  0.0204 -0.4234
 2825WAT     H2 8687   4.624   3.100   2.091 -0.3739 -0.0134  0.2004
 2826WAT      O 8688   0.442   2.367   5.758  0.0755 -0.4675 -0.5241
 2826WAT     H1 8689   0.517   2.349   5.701 -0.5221 -2.4096 -0.7607
 2826WAT     H2 8690   0.370   2.385   5.698  0.5030  2.3905 -0.2982
 2827WAT      O 8691   0.727   2.893   5.489 -0.3789  0.0731  0.1290
 2827WAT     H1 8692   0.803   2.907   5.433  0.0845 -2.2663  0.0911
 2827WAT     H2 8693   0.764   2.874   5.575 -0.7995 -2.4397 -0.1820
 2828WAT      O 8694   4.742   0.155   2.739  0.0983  0.1054  0.0818
 2828WAT     H1 8695   4.682   0.169   2.666  0.1082  0.4106  0.1309
 2828WAT     H2 8696   4.738   0.061   2.756 -0.6553  0.1810  0.3382
 2829WAT      O 8697   1.142   3.765   0.202  0.1736 -0.9128  0.4249
 2829WAT     H1 8698   1.146   3.860   0.193 -0.6114 -0.9298 -0.1707
 2829WAT     H2 8699   1.204   3.746   0.273  0.3060  0.0388  0.5882
 2830WAT      O 8700   0.408   3.548   0.026  0.7681 -0.4416 -0.6256
 2830WAT     H1 8701   0.493   3.553  -0.018  0.7525 -0.1721 -0.6270
 2830WAT     H2 8702   0.385   3.455   0.023  1.2108 -0.5655 -0.3391
 2831WAT      O 8703   4.424   3.610   1.358 -0.3466  0.0687  0.0227
 2831WAT     H1 8704   4.473   3.663   1.295 -0.3715 -1.2424 -1.1652
 2831WAT     H2 8705   4.448   3.520   1.336 -1.1746 -0.4600  1.2301
 2832WAT      O 8706   3.519   2.303   5.005  0.0080  0.0084  0.7348
 2832WAT     H1 8707   3.448   2.245   5.035  0.3511  0.4472  2.5568
 2832WAT     H2 8708   3.553   2.341   5.086  0.4014  2.0494 -0.3256
 2833WAT      O 8709   4.024   5.159   3.315 -0.2250 -0.3217 -0.5358
 2833WAT     H1 8710   4.048   5.163   3.408  0.1210 -1.7930 -0.5429
 2833WAT     H2 8711   3.958   5.090   3.310 -0.1936 -0.3002 -1.3913
 2834WAT      O 8712   3.795   4.205   4.597  0.1058  0.0587 -0.7350
 2834WAT     H1 8713   3.876   4.240   4.636 -0.5225  0.6394  0.0804
 2834WAT     H2 8714   3.818   4.189   4.505  1.3704 -0.5411 -0.3356
 2835WAT      O 8715   0.699   1.844   1.945 -0.1896  0.1938  0.8184
 2835WAT     H1 8716   0.710   1.872   1.854  0.8046 -0.8367  0.5988
 2835WAT     H2 8717   0.749   1.908   1.996  1.0170 -0.4149  0.4357
 2836WAT      O 8718   2.607   3.732   4.942 -0.0373 -0.4388 -0.1337
 2836WAT     H1 8719   2.617   3.824   4.920  0.6623 -0.4167  0.2457
 2836WAT     H2 8720   2.525   3.728   4.992  0.8033  0.2819  1.3941
 2837WAT      O 8721   0.821   4.855   3.722  0.1905  0.0612 -0.8239
 2837WAT     H1 8722   0.853   4.777   3.767 -0.9448  0.5735  0.9464
 2837WAT     H2 8723   0.751   4.888   3.778  0.2974  2.0618 -1.8101
 2838WAT      O 8724   0.039   3.582   4.905 -0.1142  0.5942 -0.7742
 2838WAT     H1 8725   0.114   3.523   4.908  2.2250  3.2778 -1.6091
 2838WAT     H2 8726   0.021   3.594   4.812 -2.1186 -0.5379 -0.5826
 2839WAT      O 8727   2.830   5.344   2.122  0.2409  0.1908  0.5661
 2839WAT     H1 8728   2.742   5.333   2.086  0.1535 -0.1955  0.8840
 2839WAT     H2 8729   2.839   5.438   2.137 -0.1280  0.2282  0.5521
 2840WAT      O 8730   0.059   4.144   2.691  0.0857  0.4743  0.4375
 2840WAT     H1 8731   0.067   4.237   2.713 -0.5083  0.1821  1.9407
 2840WAT     H2 8732   0.091   4.139   2.601  1.1272  1.9648  0.6835
 2841WAT      O 8733   0.915   1.093   2.637  0.4366 -0.5091  0.2876
 2841WAT     H1 8734   0.898   1.146   2.715 -0.5546 -0.1330 -0.1754
 2841WAT     H2 8735   0.996   1.047   2.658 -0.6151 -1.6231  2.1890
 2842WAT      O 8736   0.224   0.849   4.168  0.5443 -0.2846  0.4605
 2842WAT     H1 8737   0.220   0.769   4.115  1.0366  1.0870 -1.8114
 2842WAT     H2 8738   0.310   0.844   4.211  0.4767 -1.0776  0.5218
 2843WAT      O 8739   1.784   4.395   4.440  0.2134 -0.1860  0.0942
 2843WAT     H1 8740   1.835   4.355   4.510  1.8193 -0.8538 -1.3706
 2843WAT     H2 8741   1.839   4.386   4.362 -1.7097  0.0461 -1.3729
 2844WAT      O 8742   1.131   3.087   4.093  0.0708 -0.1750  0.0340
 2844WAT     H1 8743   1.177   3.085   4.009  1.2556  0.0699  0.6645
 2844WAT     H2 8744   1.118   2.995   4.115  1.9610 -0.3104  0.7420
 2845WAT      O 8745   1.311   5.509   2.447  0.4936  0.0502 -0.5505
 2845WAT     H1 8746   1.226   5.489   2.408  1.0744 -0.8687 -1.3917
 2845WAT     H2 8747   1.362   5.547   2.376  0.9052  0.2743 -0.1438
 2846WAT      O 8748   1.887   3.963   3.708  0.5192  0.8246  0.0934
 2846WAT     H1 8749   1.982   3.966   3.709  0.6671 -1.6240 -0.6565
 2846WAT     H2 8750   1.863   3.902   3.778 -0.4789  1.0066 -0.0648
 2847WAT      O 8751   2.060   0.758   2.231 -0.0330 -0.3623 -0.1727
 2847WAT     H1 8752   2.072   0.748   2.136  0.8355  3.0405 -0.5373
 2847WAT     H2 8753   2.113   0.688   2.269  1.3484 -0.4865 -2.1846
 2848WAT      O 8754   2.983   5.532   2.397 -0.1326 -0.1272 -0.3757
 2848WAT     H1 8755   3.014   5.573   2.478  0.2953  0.1151 -0.6627
 2848WAT     H2 8756   2.898   5.494   2.421 -0.3603  0.5938 -0.0068
 2849WAT      O 8757   1.585   3.467   5.388 -0.0722 -0.2858 -0.4484
 2849WAT     H1 8758   1.593   3.496   5.479 -1.0543  0.4509 -0.5765
 2849WAT     H2 8759   1.514   3.403   5.390  0.4699 -0.8927 -0.5640
 2850WAT      O 8760   2.870   3.834   1.578 -0.4534  0.0543  0.3915
 2850WAT     H1 8761   2.864   3.925   1.549 -2.7045 -0.4121 -0.7746
 2850WAT     H2 8762   2.851   3.838   1.672  0.1307  0.8288  0.4913
 2851WAT      O 8763   2.256   5.550   1.598 -0.0843  0.3598  0.3016
 2851WAT     H1 8764   2.303   5.601   1.531  2.0883 -2.3902 -0.4629
 2851WAT     H2 8765   2.188   5.504   1.549  0.7773 -0.7667  0.1040
 2852WAT      O 8766   2.842   4.101   2.796  0.1895 -0.5859  0.2863
 2852WAT     H1 8767   2.914   4.162   2.808 -0.3437  0.3335 -0.8946
 2852WAT     H2 8768   2.819   4.110   2.703 -2.1127 -0.0608  0.8544
 2853WAT      O 8769   0.541   1.568   3.940 -0.2998 -0.6286  0.0946
 2853WAT     H1 8770   0.549   1.550   3.847  0.5191  2.0680 -0.4396
 2853WAT     H2 8771   0.485   1.498   3.974 -3.5777  0.1778 -3.0660
 2854WAT      O 8772   1.072   0.166   3.154  0.9056  0.3997 -0.0225
 2854WAT     H1 8773   1.075   0.229   3.225 -1.0564 -1.6339  2.0377
 2854WAT     H2 8774   1.139   0.101   3.177 -0.3697 -0.7607  0.5609
 2855WAT      O 8775   1.216   0.925   3.977  0.1870 -0.0857  1.0481
 2855WAT     H1 8776   1.156   0.982   3.930  1.0822  0.9679  1.1265
 2855WAT     H2 8777   1.250   0.980   4.048  0.5013 -0.9625  1.5883
 2856WAT      O 8778   2.097   3.397   4.558 -0.1495 -0.1283  0.2434
 2856WAT     H1 8779   2.170   3.359   4.509 -0.3053  1.4508 -1.3070
 2856WAT     H2 8780   2.030   3.329   4.558  0.2531 -0.5498 -0.8531
 2857WAT      O 8781   0.283   1.099   4.154  0.5910  0.0381  0.4095
 2857WAT     H1 8782   0.357   1.116   4.212  0.4226 -0.9579  0.9397
 2857WAT     H2 8783   0.229   1.035   4.201  0.6740 -1.1363 -1.0117
 2858WAT      O 8784   2.486   1.831   2.857  0.3491 -0.9635 -0.0286
 2858WAT     H1 8785   2.534   1.897   2.907  0.6238 -0.9981 -0.2473
 2858WAT     H2 8786   2.451   1.879   2.782 -1.6589 -0.4765  1.1439
 2859WAT      O 8787   3.898   5.036   2.249 -0.3050 -0.1494 -0.4884
 2859WAT     H1 8788   3.933   4.993   2.327  2.5759  1.6165 -0.6797
 2859WAT     H2 8789   3.804   5.016   2.251 -0.3286 -0.3555  3.2708
 2860WAT      O 8790   2.637   0.216   3.957  0.4191  0.4195  0.5332
 2860WAT     H1 8791   2.721   0.177   3.930  0.5943 -1.2238  3.0572
 2860WAT     H2 8792   2.636   0.302   3.916  2.4180 -0.2908 -1.1794
 2861WAT      O 8793   4.336   1.840   4.712  0.5791 -0.3636  0.0912
 2861WAT     H1 8794   4.388   1.761   4.695  0.2978 -0.1263 -2.2022
 2861WAT     H2 8795   4.245   1.813   4.698  0.3709  0.1038  0.4820
 2862WAT      O 8796   0.861   0.110   2.712 -0.4774  0.0007  0.0401
 2862WAT     H1 8797   0.778   0.109   2.760 -0.6521  0.7646 -0.2472
 2862WAT     H2 8798   0.928   0.100   2.780 -0.7815 -0.1991  0.3130
 2863WAT      O 8799   4.066   4.789   3.534  0.6252  1.0481  0.7164
 2863WAT     H1 8800   4.007   4.756   3.603  1.3461 -0.2002  0.7690
 2863WAT     H2 8801   4.035   4.745   3.455  1.7134  0.0428  0.8181
 2864WAT      O 8802   3.485   4.609   2.410 -0.2492 -0.3166  0.6341
 2864WAT     H1 8803   3.477   4.666   2.333 -1.5958 -0.3840  0.6964
 2864WAT     H2 8804   3.520   4.665   2.478 -0.6261  0.1821  0.4213
 2865WAT      O 8805   3.873   3.430   5.410 -0.1169 -0.6504  0.2677
 2865WAT     H1 8806   3.865   3.510   5.461 -0.4632 -0.5248  0.0224
 2865WAT     H2 8807   3.814   3.368   5.452  0.1195 -0.7642  0.4322
 2866WAT      O 8808   0.279   5.601   2.108  0.0768  0.0110 -0.4039
 2866WAT     H1 8809   0.300   5.565   2.194  1.0538 -0.1717 -0.6985
 2866WAT     H2 8810   0.279   5.696   2.121 -1.5355 -0.0383  0.1634
 2867WAT      O 8811   2.287   3.312   4.381  0.1641 -0.1728 -0.4308
 2867WAT     H1 8812   2.380   3.329   4.398 -0.1282  1.1153  0.0327
 2867WAT     H2 8813   2.262   3.380   4.318 -0.2674 -1.0454 -1.2152
 2868WAT      O 8814   2.422   4.198   5.117  0.5711  0.6413  0.3745
 2868WAT     H1 8815   2.352   4.263   5.106 -1.1037 -1.1142  0.2233
 2868WAT     H2 8816   2.378   4.114   5.114  2.5545 -0.5244  1.5564
 2869WAT      O 8817   1.556   1.343   5.224  0.1742 -0.5458  0.3968
 2869WAT     H1 8818   1.464   1.327   5.203  0.2173 -0.7268  0.3399
 2869WAT     H2 8819   1.554   1.376   5.314 -0.0737  1.0523 -0.1779
 2870WAT      O 8820   1.000   5.020   1.610 -0.3213  0.5823  0.1248
 2870WAT     H1 8821   0.997   5.116   1.610 -0.7241  0.5787  0.6790
 2870WAT     H2 8822   1.036   4.997   1.525  0.0763  1.2366  0.1090
 2871WAT      O 8823   2.744   2.050   5.008 -0.4803  0.0009 -0.0665
 2871WAT     H1 8824   2.652   2.075   5.005 -0.0005  2.0155  0.3026
 2871WAT     H2 8825   2.781   2.083   4.927 -0.1920 -1.3935 -0.5237
 2872WAT      O 8826   0.182   4.909   2.232  0.0790 -0.2662  0.3928
 2872WAT     H1 8827   0.214   4.968   2.164  1.1616 -1.7033 -0.4302
 2872WAT     H2 8828   0.245   4.918   2.304 -0.2839  0.2549  0.6446
 2873WAT      O 8829   1.044   1.927   0.320  0.0194  0.4754 -0.3373
 2873WAT     H1 8830   0.992   1.890   0.392 -1.1157  0.1285 -1.3154
 2873WAT     H2 8831   1.061   2.017   0.347 -1.7691  0.8423 -0.3304
 2874WAT      O 8832   0.425   5.100   3.035  0.2845  0.3076 -0.1685
 2874WAT     H1 8833   0.493   5.122   3.097 -0.1345 -1.3666  0.9612
 2874WAT     H2 8834   0.398   5.011   3.059  0.7986 -0.8654 -3.3386
 2875WAT      O 8835   1.925   4.246   3.398 -0.0026 -0.4947 -0.7594
 2875WAT     H1 8836   1.837   4.208   3.389  0.6029 -2.0394 -0.4378
 2875WAT     H2 8837   1.964   4.197   3.470  1.1153  0.2322 -0.8555
 2876WAT      O 8838   0.362   3.980   5.293  0.1187 -0.2672  0.2008
 2876WAT     H1 8839   0.291   3.946   5.348 -0.0837 -0.1665  0.0018
 2876WAT     H2 8840   0.418   3.904   5.276  0.1479 -0.3117  0.4935
 2877WAT      O 8841   3.621   4.435   4.652  1.0943 -0.3620  0.4692
 2877WAT     H1 8842   3.640   4.367   4.587  1.2980 -0.0323  0.1803
 2877WAT     H2 8843   3.676   4.413   4.727  1.0732 -0.5816  0.4192
 2878WAT      O 8844   0.229   2.049   5.084 -0.2491 -0.0439  0.2831
 2878WAT     H1 8845   0.195   1.998   5.011 -2.2748 -0.1377  1.2322
 2878WAT     H2 8846   0.171   2.125   5.089  0.8556  0.7917  0.8086
 2879WAT      O 8847   0.078   4.020   0.781 -0.2242 -0.2172  0.1877
 2879WAT     H1 8848   0.160   3.989   0.820 -0.3492 -0.4270  0.2819
 2879WAT     H2 8849   0.067   3.966   0.703 -0.7442 -0.8129  0.6669
 2880WAT      O 8850   1.662   2.487   0.234  0.8656  0.3778  0.5002
 2880WAT     H1 8851   1.719   2.513   0.306  2.4890 -1.1357 -0.1596
 2880WAT     H2 8852   1.709   2.516   0.155  0.7188 -0.8366 -0.0562
 2881WAT      O 8853   1.120   3.280   0.962 -0.3371  0.1553  0.1401
 2881WAT     H1 8854   1.091   3.276   0.871  2.3857 -0.7110 -0.7866
 2881WAT     H2 8855   1.168   3.199   0.975  2.7616  1.9891  1.0391
 2882WAT      O 8856   0.139   0.864   3.579 -1.1548 -0.5717  1.1442
 2882WAT     H1 8857   0.051   0.829   3.584 -0.8645 -1.7639 -1.0990
 2882WAT     H2 8858   0.190   0.798   3.533 -0.3754  2.2555 -2.5666
 2883WAT      O 8859   1.002   2.597   5.070  0.2725  0.7181 -0.5874
 2883WAT     H1 8860   0.912   2.595   5.037 -0.4840  0.8488  1.3384
 2883WAT     H2 8861   1.017   2.507   5.101  0.9370  0.6062 -1.2373
 2884WAT      O 8862   0.631   3.083   4.369 -0.0878 -0.6390  0.3074
 2884WAT     H1 8863   0.680   3.149   4.418 -2.9939  1.2285  0.9927
 2884WAT     H2 8864   0.590   3.132   4.297 -1.4312 -1.9124  0.1477
 2885WAT      O 8865   3.658   3.206   4.040 -0.0451 -0.6858 -0.0255
 2885WAT     H1 8866   3.717   3.253   4.099 -2.3116 -1.0665  2.7631
 2885WAT     H2 8867   3.591   3.270   4.017 -1.3600 -1.5561  1.1678
 2886WAT      O 8868   0.689   3.508   5.146 -0.1482 -0.1251  0.5522
 2886WAT     H1 8869   0.706   3.600   5.169 -0.4205  0.4384 -1.2709
 2886WAT     H2 8870   0.598   3.493   5.171 -0.0132 -0.0043  1.1351
 2887WAT      O 8871   2.882   3.979   1.223 -0.0031  0.1228 -0.1618
 2887WAT     H1 8872   2.802   3.927   1.226 -0.0003  0.1473  0.3216
 2887WAT     H2 8873   2.852   4.069   1.221  0.0092  0.1285 -0.0966
 2888WAT      O 8874   2.893   2.460   4.287  0.3242  0.1765  0.3182
 2888WAT     H1 8875   2.904   2.551   4.314 -1.6591  0.7277 -0.6339
 2888WAT     H2 8876   2.983   2.426   4.283  1.0725  1.9053  1.1871
 2889WAT      O 8877   4.346   2.438   2.569  0.4783  0.4768 -0.2683
 2889WAT     H1 8878   4.368   2.444   2.662 -2.0475  2.5733  0.3108
 2889WAT     H2 8879   4.332   2.345   2.554 -0.2674  0.2014  1.7905
 2890WAT      O 8880   3.666   4.707   4.097  0.7765 -0.2898 -0.1394
 2890WAT     H1 8881   3.610   4.630   4.109  1.2410 -0.5331  0.5306
 2890WAT     H2 8882   3.658   4.728   4.004  1.8729 -2.1313 -0.7123
 2891WAT      O 8883   1.951   3.033   2.798  0.7065 -0.3288 -0.0741
 2891WAT     H1 8884   2.035   3.060   2.763 -0.1227  1.1787 -1.0061
 2891WAT     H2 8885   1.911   3.115   2.829  0.0502 -1.1684  1.4336
 2892WAT      O 8886   3.999   0.422   3.643  0.6249 -0.1974  0.3157
 2892WAT     H1 8887   3.948   0.460   3.714  1.0894  0.4205  0.3346
 2892WAT     H2 8888   4.071   0.376   3.687  0.5160 -0.4077  0.2702
 2893WAT      O 8889   1.566   2.775   5.548 -0.3141  0.6418 -0.4447
 2893WAT     H1 8890   1.569   2.778   5.643 -0.0712 -1.9946 -0.2775
 2893WAT     H2 8891   1.654   2.798   5.520 -0.2183  0.8357  0.0169
 2894WAT      O 8892   2.917   0.301   2.664 -0.3258 -0.2280 -0.2506
 2894WAT     H1 8893   2.882   0.383   2.628  3.0262  0.6455 -1.9091
 2894WAT     H2 8894   2.932   0.320   2.757 -0.2941  0.7957 -0.4496
 2895WAT      O 8895   0.943   3.421   2.769 -0.0198  0.1553 -0.3826
 2895WAT     H1 8896   0.989   3.440   2.850 -0.3796  0.5082 -0.2604
 2895WAT     H2 8897   0.868   3.480   2.769  0.7177  1.1269 -1.6256
 2896WAT      O 8898   1.030   1.560   5.278  0.2286 -0.3123  0.1856
 2896WAT     H1 8899   1.094   1.532   5.343 -0.4283 -2.1314  0.1267
 2896WAT     H2 8900   0.958   1.596   5.330  0.0493 -1.0164  0.4405
 2897WAT      O 8901   1.284   2.608   0.621 -0.1766  0.5260 -0.0440
 2897WAT     H1 8902   1.364   2.586   0.668 -1.1281 -1.1641  0.8531
 2897WAT     H2 8903   1.271   2.536   0.559 -1.2671  0.5229  0.1640
 2898WAT      O 8904   1.777   5.450   4.025  0.4950  0.2778  0.4390
 2898WAT     H1 8905   1.826   5.420   4.102  0.2462 -1.4118 -0.0131
 2898WAT     H2 8906   1.843   5.490   3.969  0.9196  0.2784  0.9295
 2899WAT      O 8907   0.566   4.005   0.940  0.1553 -0.0362  0.0191
 2899WAT     H1 8908   0.627   4.005   1.015  0.2549  1.3322 -0.0325
 2899WAT     H2 8909   0.612   4.053   0.872 -0.4118 -0.2504 -0.5224
 2900WAT      O 8910   4.893   0.245   1.586 -0.3063 -0.8175  0.1005
 2900WAT     H1 8911   4.816   0.234   1.529 -1.8318 -0.5013  2.0035
 2900WAT     H2 8912   4.863   0.215   1.672  1.1780  0.8996  1.2716
 2901WAT      O 8913   2.602   4.198   4.617  0.0204 -0.2906  0.2270
 2901WAT     H1 8914   2.570   4.166   4.533  0.8949 -0.9225  0.1256
 2901WAT     H2 8915   2.550   4.150   4.682 -1.4397  1.0037  0.0718
 2902WAT      O 8916   0.625   3.951   4.155  0.3778  0.4493  0.0232
 2902WAT     H1 8917   0.650   4.001   4.078 -0.4924 -0.6314 -0.9914
 2902WAT     H2 8918   0.530   3.938   4.146  0.3440 -0.1209  1.0106
 2903WAT      O 8919   0.435   4.817   3.154  0.5347  0.6784  0.3977
 2903WAT     H1 8920   0.530   4.823   3.164  0.5172  0.8576  0.4551
 2903WAT     H2 8921   0.408   4.755   3.221  0.4954  1.3799  1.0408
 2904WAT      O 8922   3.376   0.531   3.206  0.7468  0.2695  0.1833
 2904WAT     H1 8923   3.360   0.468   3.276  0.4850  0.0449 -0.0763
 2904WAT     H2 8924   3.424   0.602   3.248 -1.1781  1.1146  1.0853
 2905WAT      O 8925   0.324   2.917   0.373  0.0373 -0.3622  0.4097
 2905WAT     H1 8926   0.411   2.919   0.333 -0.2910  1.6602 -0.3441
 2905WAT     H2 8927   0.271   2.866   0.312  0.6331 -1.4107  0.7588
 2906WAT      O 8928   2.671   3.772   1.239 -0.1994 -0.7619  0.4996
 2906WAT     H1 8929   2.608   3.833   1.277 -0.5284  0.7963 -2.3025
 2906WAT     H2 8930   2.644   3.686   1.272 -3.8370 -0.1696 -0.4843
 2907WAT      O 8931   2.570   4.052   3.419 -0.4386 -0.2388 -0.2305
 2907WAT     H1 8932   2.502   4.027   3.482  0.8827  0.6550  1.6626
 2907WAT     H2 8933   2.537   4.132   3.378 -2.3197 -2.0182 -2.4446
 2908WAT      O 8934   4.644   3.571   1.068  0.2994  0.0075 -0.6026
 2908WAT     H1 8935   4.728   3.583   1.113  0.9771 -0.5694 -1.6786
 2908WAT     H2 8936   4.599   3.655   1.079  1.4331  0.6740 -0.8460
 2909WAT      O 8937   0.506   1.529   1.698  0.6809  0.7706  0.2309
 2909WAT     H1 8938   0.421   1.558   1.731  0.1710 -0.5245  0.1114
 2909WAT     H2 8939   0.493   1.520   1.603  1.2037  1.3471  0.0929
 2910WAT      O 8940   3.783   5.235   2.493 -0.4496 -0.2963  0.7779
 2910WAT     H1 8941   3.858   5.264   2.440 -0.5721  0.1564  0.8440
 2910WAT     H2 8942   3.759   5.313   2.544  0.5784 -1.1194  2.6005
 2911WAT      O 8943   1.905   3.571   4.326  0.6293 -0.2668  0.1407
 2911WAT     H1 8944   1.907   3.599   4.417  0.6070 -1.0279  0.3813
 2911WAT     H2 8945   1.972   3.503   4.320  0.8322 -0.0156 -0.4807
 2912WAT      O 8946   0.274   2.315   4.034 -0.4721  0.0924  0.1778
 2912WAT     H1 8947   0.284   2.225   4.065  1.7774 -0.0871 -0.8063
 2912WAT     H2 8948   0.230   2.361   4.105  1.1318 -1.1185  2.0517
 2913WAT      O 8949   1.894   4.969   2.130 -0.6048  0.5577 -0.4836
 2913WAT     H1 8950   1.820   4.983   2.072 -0.8035  0.9722 -0.1278
 2913WAT     H2 8951   1.929   5.056   2.147 -0.6187  0.4482  0.1167
 2914WAT      O 8952   1.395   3.031   3.918  0.0739 -0.0308  0.0461
 2914WAT     H1 8953   1.334   3.102   3.898  0.3089  0.7650  1.9421
 2914WAT     H2 8954   1.461   3.036   3.849 -0.2709  1.1706 -0.2147
 2915WAT      O 8955   0.817   0.092   3.859 -0.3397 -0.1718 -0.1738
 2915WAT     H1 8956   0.726   0.063   3.871 -0.6838  0.8893 -0.0896
 2915WAT     H2 8957   0.868   0.011   3.857 -1.4825 -0.8932 -2.1220
 2916WAT      O 8958   2.239   3.332   0.717 -0.1091 -0.2720  0.7272
 2916WAT     H1 8959   2.312   3.391   0.699 -0.8327  0.5648  0.4481
 2916WAT     H2 8960   2.166   3.390   0.739 -1.7182 -0.8506 -2.5756
 2917WAT      O 8961   1.481   4.032   1.603  0.3174  0.2611 -0.0268
 2917WAT     H1 8962   1.561   3.980   1.595  1.0883  1.0840  1.6915
 2917WAT     H2 8963   1.504   4.103   1.664 -2.1043 -0.3184  1.7337
 2918WAT      O 8964   1.755   3.907   1.611 -0.0941 -0.0365  0.2925
 2918WAT     H1 8965   1.738   3.819   1.646  0.3059 -0.4364 -0.4929
 2918WAT     H2 8966   1.829   3.896   1.552 -0.0894  0.8178  0.1195
 2919WAT      O 8967   1.149   5.444   2.868  0.9801  0.2294  0.1397
 2919WAT     H1 8968   1.072   5.412   2.915 -1.0550  0.9214 -2.4441
 2919WAT     H2 8969   1.198   5.365   2.845  1.0572 -0.2319  1.7891
 2920WAT      O 8970   2.753   5.439   2.580 -0.3830  0.4660  0.3938
 2920WAT     H1 8971   2.770   5.358   2.628  0.5844 -1.0700 -2.3559
 2920WAT     H2 8972   2.657   5.441   2.569 -0.2830 -1.9408 -1.9453
 2921WAT      O 8973   4.032   4.813   3.102 -0.0599 -0.1582  0.3756
 2921WAT     H1 8974   4.114   4.801   3.150 -0.1180  0.9731  0.7756
 2921WAT     H2 8975   3.998   4.724   3.091 -0.1535 -0.4665  2.6354
 2922WAT      O 8976   4.847   3.233   1.065 -0.2149 -0.2971 -0.7393
 2922WAT     H1 8977   4.822   3.274   1.148  1.5711  0.2713 -0.4453
 2922WAT     H2 8978   4.800   3.149   1.065 -1.5165  0.4002  0.0760
 2923WAT      O 8979   4.128   0.813   1.295 -0.4424 -0.6562  0.0308
 2923WAT     H1 8980   4.102   0.872   1.366 -0.4613 -0.5336 -0.0752
 2923WAT     H2 8981   4.110   0.864   1.216  1.8274  0.1712 -0.0265
 2924WAT      O 8982   4.897   2.889   2.598 -0.1419  0.1337  0.1484
 2924WAT     H1 8983   4.832   2.819   2.609  1.2592 -1.2592 -0.1493
 2924WAT     H2 8984   4.929   2.905   2.687  0.1786 -0.2525  0.1059
 2925WAT      O 8985   4.176   5.117   2.699 -0.4691  0.1332  0.1494
 2925WAT     H1 8986   4.264   5.080   2.692 -0.9729 -1.3622  1.2531
 2925WAT     H2 8987   4.191   5.211   2.709  0.9520  0.0204 -0.6697
 2926WAT      O 8988   0.434   3.513   2.555 -0.5447 -0.1314  0.1744
 2926WAT     H1 8989   0.515   3.479   2.517 -0.3983 -0.2379  0.5874
 2926WAT     H2 8990   0.373   3.439   2.549 -0.9215  0.2565 -1.0686
 2927WAT      O 8991   3.468   3.303   3.101 -0.0300 -0.0972  0.0735
 2927WAT     H1 8992   3.520   3.234   3.141 -0.6703 -0.8382 -0.3581
 2927WAT     H2 8993   3.379   3.288   3.133 -0.3192  0.0498 -0.6503
 2928WAT      O 8994   0.428   3.659   0.937 -0.4016  0.4307  0.2359
 2928WAT     H1 8995   0.432   3.567   0.911  1.8162  0.6888 -0.5102
 2928WAT     H2 8996   0.479   3.706   0.871  2.2131  1.6086  2.8769
 2929WAT      O 8997   1.124   3.585   3.648  0.0064 -0.2409 -0.0607
 2929WAT     H1 8998   1.156   3.642   3.718 -1.1220  1.5057 -0.8838
 2929WAT     H2 8999   1.199   3.532   3.624  1.8674  2.4541 -0.7366
 2930WAT      O 9000   4.305   4.902   3.419 -0.0508 -0.3859 -0.1143
 2930WAT     H1 9001   4.374   4.912   3.485  2.6377 -1.6321 -2.5564
 2930WAT     H2 9002   4.229   4.871   3.469  1.2732  0.4438  2.6073
 2931WAT      O 9003   1.327   0.804   2.846 -0.2100 -0.3682  0.3507
 2931WAT     H1 9004   1.388   0.787   2.918  1.7186 -1.0682 -1.3557
 2931WAT     H2 9005   1.370   0.769   2.769 -2.2303  0.3016 -1.1830
 2932WAT      O 9006   3.427   1.549   1.556 -0.0609 -0.9023  0.0897
 2932WAT     H1 9007   3.355   1.506   1.510  1.3692 -1.0302 -2.1866
 2932WAT     H2 9008   3.485   1.478   1.583  1.8150 -0.6278 -2.8197
 2933WAT      O 9009   0.565   4.916   2.425 -0.6365  0.0634  0.1726
 2933WAT     H1 9010   0.480   4.888   2.458 -0.2863 -0.3217  0.7810
 2933WAT     H2 9011   0.621   4.838   2.434 -0.5947 -0.1519 -1.6264
 2934WAT      O 9012   2.718   0.797   3.618  0.0331 -0.2008 -0.1646
 2934WAT     H1 9013   2.679   0.791   3.705 -0.2121 -1.5517 -0.3380
 2934WAT     H2 9014   2.649   0.833   3.563 -0.5649 -1.3902 -0.2168
 2935WAT      O 9015   2.797   5.192   1.683  0.1787 -0.4828  0.4940
 2935WAT     H1 9016   2.792   5.287   1.699 -0.3690 -0.4654  0.2565
 2935WAT     H2 9017   2.887   5.169   1.703  0.6067  0.2790 -0.4583
 2936WAT      O 9018   1.039   1.122   3.929  0.9579  0.1541  0.3296
 2936WAT     H1 9019   1.040   1.215   3.952  0.3539  0.5190 -1.0050
 2936WAT     H2 9020   0.961   1.088   3.973 -0.0504  0.7894 -0.8800
 2937WAT      O 9021   0.142   4.415   1.477  0.3963  0.2559  0.4974
 2937WAT     H1 9022   0.118   4.448   1.563  0.0686  0.5391  0.3001
 2937WAT     H2 9023   0.186   4.488   1.434 -1.0669  0.7340 -0.2486
 2938WAT      O 9024   4.738   4.969   2.681 -0.3913  0.2072 -0.2202
 2938WAT     H1 9025   4.691   4.896   2.722  0.9217 -1.1106 -0.9546
 2938WAT     H2 9026   4.812   4.927   2.636  0.6238  2.0502 -0.3403
 2939WAT      O 9027   1.782   3.958   4.530  0.5067 -0.4031  0.8199
 2939WAT     H1 9028   1.869   3.999   4.528  0.2781  0.0997 -0.8125
 2939WAT     H2 9029   1.723   4.026   4.496 -0.3318 -1.1260  0.7978
 2940WAT      O 9030   3.636   1.251   3.573 -0.2514  0.5484  0.1937
 2940WAT     H1 9031   3.716   1.303   3.580  0.3759 -0.3988  0.2140
 2940WAT     H2 9032   3.664   1.161   3.588 -1.3599  0.2220  0.3940
 2941WAT      O 9033   4.106   4.631   2.375 -0.0803 -0.6994 -0.1611
 2941WAT     H1 9034   4.196   4.655   2.397 -0.6730  1.7943 -0.1935
 2941WAT     H2 9035   4.097   4.655   2.283 -1.3140  0.9607  0.3551
 2942WAT      O 9036   0.601   0.413   1.389 -0.0245 -0.5496 -0.0857
 2942WAT     H1 9037   0.671   0.348   1.387 -0.4986 -1.1315  1.0357
 2942WAT     H2 9038   0.645   0.497   1.377  1.0163 -0.7968  1.7338
 2943WAT      O 9039   2.092   0.595   1.478  0.1380  0.1331 -1.6849
 2943WAT     H1 9040   2.040   0.524   1.441 -0.8122 -1.1756  1.8105
 2943WAT     H2 9041   2.173   0.553   1.506 -0.9841 -0.0409  1.6739
 2944WAT      O 9042   2.327   3.536   0.992 -0.0528 -0.1412  0.1788
 2944WAT     H1 9043   2.265   3.463   0.998 -0.3731  0.1697  0.7752
 2944WAT     H2 9044   2.411   3.498   1.018  0.0436 -0.5989 -0.7652
 2945WAT      O 9045   1.910   1.020   1.662  0.1686 -0.9472  0.8497
 2945WAT     H1 9046   1.910   0.959   1.735 -0.2883 -1.4436  0.4505
 2945WAT     H2 9047   1.946   0.970   1.589 -2.5056 -1.5863 -0.1273
 2946WAT      O 9048   4.411   3.371   1.856  0.1559  0.0031 -0.2989
 2946WAT     H1 9049   4.421   3.299   1.794  1.0302 -0.9791  0.9316
 2946WAT     H2 9050   4.335   3.347   1.909 -1.4573  1.5064 -1.7952
 2947WAT      O 9051   2.152   5.171   2.500  0.2338 -0.3594 -0.2069
 2947WAT     H1 9052   2.242   5.201   2.493  0.2570 -0.6912 -1.8174
 2947WAT     H2 9053   2.157   5.076   2.491 -0.2220 -0.4360  0.3239
 2948WAT      O 9054   2.811   0.521   2.540 -0.1536 -0.3051 -0.2386
 2948WAT     H1 9055   2.748   0.487   2.477 -2.0268 -0.2962  1.5061
 2948WAT     H2 9056   2.857   0.591   2.494 -3.1264  1.3523 -0.9334
 2949WAT      O 9057   3.520   0.240   2.218  0.1870 -0.2974  0.1706
 2949WAT     H1 9058   3.544   0.287   2.139 -0.9010 -1.2638 -0.7611
 2949WAT     H2 9059   3.460   0.300   2.264  0.8538  0.2788  0.3184
 2950WAT      O 9060   1.435   2.066   5.192  0.1783  0.0089 -0.0685
 2950WAT     H1 9061   1.472   2.151   5.214  1.7540 -0.5817 -0.2389
 2950WAT     H2 9062   1.436   2.063   5.097 -2.4696  0.8357 -0.1801
 2951WAT      O 9063   0.146   3.398   0.575  0.4398 -0.3275 -0.0015
 2951WAT     H1 9064   0.172   3.306   0.572  0.2537 -0.4291  1.0287
 2951WAT     H2 9065   0.108   3.409   0.662 -0.1085  0.5767 -0.3370
 2952WAT      O 9066   2.010   5.092   3.107  0.3699 -0.2536 -0.8790
 2952WAT     H1 9067   1.978   5.011   3.066  0.5488 -0.7958  0.0349
 2952WAT     H2 9068   2.085   5.064   3.159  0.0925  0.4162 -0.1153
 2953WAT      O 9069  -0.020   3.972   3.002  0.1843 -0.0923 -0.1148
 2953WAT     H1 9070  -0.040   3.979   2.909  0.6742  0.1644 -0.2049
 2953WAT     H2 9071   0.075   3.984   3.008  0.1658 -0.1482  0.4122
 2954WAT      O 9072   4.180   2.981   5.122 -0.0083 -0.4288 -0.3762
 2954WAT     H1 9073   4.189   3.038   5.046 -0.6410 -0.7030 -0.6643
 2954WAT     H2 9074   4.129   3.032   5.185  2.5191  0.7537  0.8746
 2955WAT      O 9075   4.896   5.126   2.432 -0.0400 -0.3017  0.4475
 2955WAT     H1 9076   4.894   5.037   2.397  0.7834 -0.7369  1.4276
 2955WAT     H2 9077   4.805   5.146   2.453 -0.0976 -1.4639  1.4768
 2956WAT      O 9078   3.696   1.519   0.670 -0.1763 -0.0891  0.0451
 2956WAT     H1 9079   3.676   1.594   0.725 -2.1787  0.4738 -1.3482
 2956WAT     H2 9080   3.611   1.487   0.641  0.7046 -2.0250 -0.5563
 2957WAT      O 9081   1.058   2.073   2.849 -0.2870 -0.1937  0.4988
 2957WAT     H1 9082   1.011   2.096   2.769  1.3319  1.0989 -0.1179
 2957WAT     H2 9083   1.044   2.148   2.907  2.2910  0.9998 -0.3036
 2958WAT      O 9084   0.257   5.339   2.952  0.4309  0.5975  0.3931
 2958WAT     H1 9085   0.212   5.355   2.869 -0.0794 -2.0095  0.0874
 2958WAT     H2 9086   0.305   5.257   2.938  1.0807  0.5814  2.3804
 2959WAT      O 9087   2.206   4.118   2.373  0.3151 -0.0706 -0.1739
 2959WAT     H1 9088   2.195   4.187   2.439 -0.2900 -0.2662 -0.0630
 2959WAT     H2 9089   2.140   4.137   2.307 -0.1853 -0.8071  0.0934
 2960WAT      O 9090   1.845   2.838   0.383  0.1751  0.2487 -0.2210
 2960WAT     H1 9091   1.757   2.799   0.392  0.6241 -0.6906  0.2808
 2960WAT     H2 9092   1.867   2.866   0.472  0.4027  0.4548 -0.3423
 2961WAT      O 9093   0.570   1.297   3.268 -0.1621  0.0236 -0.0881
 2961WAT     H1 9094   0.615   1.281   3.185  0.1332  0.2665  0.0214
 2961WAT     H2 9095   0.597   1.225   3.325 -1.0787 -0.6440 -0.4818
 2962WAT      O 9096   3.799   2.654   2.864  0.1051 -0.2101 -0.0481
 2962WAT     H1 9097   3.716   2.607   2.859 -0.4052  0.6566  0.1055
 2962WAT     H2 9098   3.838   2.642   2.777 -0.8158  0.5141 -0.5751
 2963WAT      O 9099   0.560   3.287   1.675  0.0071 -0.4291 -0.3768
 2963WAT     H1 9100   0.620   3.305   1.747 -0.1459 -3.4642  0.6278
 2963WAT     H2 9101   0.613   3.243   1.609 -0.2669  0.6336 -1.3348
 2964WAT      O 9102   3.222   4.349   0.775 -0.1470 -0.3784  0.0032
 2964WAT     H1 9103   3.203   4.268   0.727  0.8240 -0.4455 -0.2855
 2964WAT     H2 9104   3.182   4.336   0.860  1.0272 -1.6864  0.3915
 2965WAT      O 9105   2.749   3.765   5.777 -0.3210 -0.3007  0.5053
 2965WAT     H1 9106   2.748   3.828   5.705  1.0304 -0.5587  0.2390
 2965WAT     H2 9107   2.656   3.749   5.796 -0.6886  0.4406 -0.5854
 2966WAT      O 9108   1.077   3.620   2.235  0.1937  0.4486  0.0920
 2966WAT     H1 9109   1.000   3.565   2.254  1.3077 -1.0558  0.4381
 2966WAT     H2 9110   1.042   3.709   2.232 -1.6092 -0.2097 -0.0092
 2967WAT      O 9111   0.323   3.165   5.478 -0.4387  0.0643 -0.2709
 2967WAT     H1 9112   0.412   3.142   5.453 -0.4000  1.1336 -1.1640
 2967WAT     H2 9113   0.276   3.082   5.480  0.4836 -0.4619 -0.1458
 2968WAT      O 9114   1.874   4.829   3.899 -0.4124  0.0215 -0.8405
 2968WAT     H1 9115   1.847   4.921   3.907 -0.7518 -0.2793  2.4620
 2968WAT     H2 9116   1.969   4.833   3.891 -0.2375  0.6611  1.0894
 2969WAT      O 9117   3.429   1.975   1.022  0.4627 -0.2715  0.5179
 2969WAT     H1 9118   3.395   1.916   0.955 -0.3901  1.7178 -0.9205
 2969WAT     H2 9119   3.409   1.932   1.105  0.1882 -2.1228 -0.4603
 2970WAT      O 9120   1.557   4.963   2.706 -0.5613 -0.0107 -0.5945
 2970WAT     H1 9121   1.479   5.012   2.680 -0.4165  0.4659 -0.1444
 2970WAT     H2 9122   1.616   5.028   2.744 -0.4669 -0.5634  0.2437
 2971WAT      O 9123   1.844   4.353   5.290  0.0991 -0.7790 -0.4331
 2971WAT     H1 9124   1.797   4.317   5.365 -1.6882  2.6942  0.3044
 2971WAT     H2 9125   1.780   4.351   5.218 -0.8623  2.5109  0.1635
 2972WAT      O 9126   2.937   3.058   3.974  0.4785  0.1134  0.1855
 2972WAT     H1 9127   3.001   3.065   4.045 -0.6989 -1.5872  1.4953
 2972WAT     H2 9128   2.983   3.009   3.905  1.1749  0.5382  0.3353
 2973WAT      O 9129   3.114   1.137   3.060  0.3295 -0.1521  0.4298
 2973WAT     H1 9130   3.181   1.088   3.106 -0.1813 -1.6630 -0.3725
 2973WAT     H2 9131   3.033   1.116   3.106  0.2149  0.6603  0.6198
 2974WAT      O 9132   4.007   3.610   4.075  0.2122  0.3184  0.4634
 2974WAT     H1 9133   3.975   3.615   3.985 -0.9952 -0.1864  0.8476
 2974WAT     H2 9134   3.986   3.695   4.113  0.3880  0.3993  0.3816
 2975WAT      O 9135   4.457   0.328   2.893  0.0418 -0.1751 -0.5776
 2975WAT     H1 9136   4.524   0.301   2.955 -1.0185 -0.8781  0.3001
 2975WAT     H2 9137   4.482   0.417   2.867  1.4167 -0.5033 -0.4466
 2976WAT      O 9138   0.687   5.244   3.832 -0.1903 -0.1238 -0.1687
 2976WAT     H1 9139   0.727   5.166   3.871  0.5620 -1.0128 -2.5669
 2976WAT     H2 9140   0.634   5.210   3.760 -0.7941  1.5145 -0.5366
 2977WAT      O 9141   1.625   1.008   3.386 -0.2055  0.7605  0.0737
 2977WAT     H1 9142   1.643   0.946   3.456 -1.8974 -1.4281 -1.2736
 2977WAT     H2 9143   1.529   1.008   3.379 -0.1156  1.5532 -1.6422
 2978WAT      O 9144   0.413   3.681   4.075 -0.2722  0.1532 -0.0311
 2978WAT     H1 9145   0.467   3.681   4.154 -1.6100 -0.6891  0.9272
 2978WAT     H2 9146   0.476   3.683   4.003  0.9899  0.4824  1.0408
 2979WAT      O 9147   0.555   3.484   0.615  0.5668  0.3926 -0.2358
 2979WAT     H1 9148   0.533   3.408   0.562  0.9475  0.1457 -0.0401
 2979WAT     H2 9149   0.518   3.558   0.567 -0.7920 -0.0165  0.1206
 2980WAT      O 9150   4.016   1.977   5.598  0.0357  0.1435  0.2846
 2980WAT     H1 9151   3.995   1.918   5.526 -1.4342  1.1196 -0.1422
 2980WAT     H2 9152   4.069   2.046   5.559  0.4201 -0.0590  0.4449
 2981WAT      O 9153   4.334   4.081   1.571  0.0843  0.1044 -0.3266
 2981WAT     H1 9154   4.416   4.130   1.566 -0.6220  1.4529  0.4460
 2981WAT     H2 9155   4.335   4.042   1.659  0.3779 -0.7958 -0.7234
 2982WAT      O 9156   0.062   3.801   2.462  0.4472  0.3685  0.1132
 2982WAT     H1 9157  -0.025   3.821   2.428  1.1740  0.0764 -2.1081
 2982WAT     H2 9158   0.102   3.887   2.478 -0.1855  0.5032  1.0209
 2983WAT      O 9159   3.391   4.404   3.359  0.1164  0.1984  0.0544
 2983WAT     H1 9160   3.370   4.312   3.376  0.4041 -0.5483 -2.9401
 2983WAT     H2 9161   3.416   4.440   3.444 -0.2760 -2.4054  1.3635
 2984WAT      O 9162   0.080   1.622   0.748  0.0343 -0.3111 -0.4067
 2984WAT     H1 9163  -0.007   1.582   0.746 -0.3711  0.5087  0.1915
 2984WAT     H2 9164   0.121   1.587   0.826  0.1737 -0.5512 -0.5862
 2985WAT      O 9165   0.761   3.900   2.188 -0.4199  0.0602 -0.1348
 2985WAT     H1 9166   0.790   3.898   2.097  1.2798  1.1711  0.3491
 2985WAT     H2 9167   0.688   3.963   2.189  0.3745  1.0038 -0.5267
 2986WAT      O 9168   2.980   2.223   5.471  0.4566  0.2737  0.1526
 2986WAT     H1 9169   2.901   2.170   5.476  0.8335 -0.1888  2.3581
 2986WAT     H2 9170   3.028   2.187   5.395  0.8664 -2.8837  1.7280
 2987WAT      O 9171   2.982   4.411   1.234 -0.4313 -0.4673  0.2076
 2987WAT     H1 9172   2.990   4.506   1.231 -0.6286 -0.4561 -0.0613
 2987WAT     H2 9173   3.048   4.379   1.173  0.3005 -0.5468  1.0322
 2988WAT      O 9174   4.207   1.851   3.007  0.3820 -0.4881 -0.4773
 2988WAT     H1 9175   4.167   1.897   3.081  1.4545 -3.2369  2.0005
 2988WAT     H2 9176   4.132   1.815   2.958 -0.3282  0.5467 -0.1831
 2989WAT      O 9177   1.644   2.524   2.762 -0.4790 -0.0253 -0.2594
 2989WAT     H1 9178   1.602   2.439   2.757 -0.8876  0.1231  0.5556
 2989WAT     H2 9179   1.738   2.505   2.750 -0.6875 -0.4150 -1.4643
 2990WAT      O 9180   1.101   3.066   2.458 -0.6853 -0.1665  0.9280
 2990WAT     H1 9181   1.103   3.131   2.388 -0.8987  0.1550  1.2145
 2990WAT     H2 9182   1.192   3.040   2.469 -0.9005 -1.9263 -1.0201
 2991WAT      O 9183   0.166   2.946   1.693  0.4497 -0.1819  0.2396
 2991WAT     H1 9184   0.159   3.040   1.678 -4.3834 -0.3105  0.2027
 2991WAT     H2 9185   0.207   2.938   1.779  0.1485  2.0262  0.6366
 2992WAT      O 9186   3.893   3.267   0.705  0.3826 -0.3527  0.1671
 2992WAT     H1 9187   3.801   3.276   0.679 -0.8432 -0.9718  3.6582
 2992WAT     H2 9188   3.927   3.356   0.703 -0.5857  0.0208 -0.3537
 2993WAT      O 9189   3.278   3.811   5.468  0.2012  0.2738  0.4656
 2993WAT     H1 9190   3.256   3.726   5.431  1.0983  0.7429 -1.2226
 2993WAT     H2 9191   3.207   3.869   5.442 -0.4418  0.0663  1.6690
 2994WAT      O 9192   3.589   2.785   1.667  0.9614  0.0956  0.1858
 2994WAT     H1 9193   3.636   2.725   1.609  1.0353 -0.0404  0.3827
 2994WAT     H2 9194   3.576   2.735   1.748  1.3072  0.4548  0.4685
 2995WAT      O 9195   4.072   2.156   0.877  0.1668 -0.6565  0.8343
 2995WAT     H1 9196   4.083   2.240   0.833  0.9233 -1.1991 -0.0405
 2995WAT     H2 9197   4.116   2.093   0.820 -2.4975 -2.0625  0.1569
 2996WAT      O 9198   0.746   4.908   1.498 -0.1255  0.0586 -0.0606
 2996WAT     H1 9199   0.688   4.982   1.479  1.2396  1.0476 -0.5168
 2996WAT     H2 9200   0.777   4.925   1.587 -0.0988 -0.1730 -0.0267
 2997WAT      O 9201   3.650   4.964   1.909 -0.0993 -0.4455  0.3919
 2997WAT     H1 9202   3.564   4.940   1.874  0.6864 -0.5306 -1.6066
 2997WAT     H2 9203   3.649   4.930   1.998 -2.1715 -0.3274  0.4798
 2998WAT      O 9204   2.931   0.075   3.978  0.4093 -0.2031 -0.6779
 2998WAT     H1 9205   2.956   0.116   3.895 -0.1402 -0.9831 -1.2556
 2998WAT     H2 9206   3.013   0.043   4.015  0.6874  0.3505 -0.8064
 2999WAT      O 9207   1.355   3.769   3.438 -0.0270  0.1397 -0.7379
 2999WAT     H1 9208   1.268   3.808   3.424  0.2009  0.5516 -1.0356
 2999WAT     H2 9209   1.413   3.844   3.448  0.7154 -0.0240 -3.0890
 3000WAT      O 9210   4.461   4.651   2.165 -0.0300 -0.1055 -0.3675
 3000WAT     H1 9211   4.522   4.724   2.163  2.0843 -1.7579 -2.2673
 3000WAT     H2 9212   4.414   4.657   2.082  1.6289 -1.9075 -1.5410
 3001WAT      O 9213   0.878   1.248   2.060  0.1414 -0.3032  0.1231
 3001WAT     H1 9214   0.857   1.161   2.027 -2.3276  0.0447  0.6257
 3001WAT     H2 9215   0.847   1.308   1.992  0.5747  0.2386  0.3921
 3002WAT      O 9216   3.268   3.712   4.313 -0.2501  0.2148 -0.7054
 3002WAT     H1 9217   3.316   3.731   4.233  0.1786 -0.1098 -0.5248
 3002WAT     H2 9218   3.252   3.799   4.352  1.4108  0.2720 -0.0623
 3003WAT      O 9219   2.406   4.881   1.509  0.3737  0.3268  0.0448
 3003WAT     H1 9220   2.388   4.908   1.599 -0.4331  1.2831 -0.3812
 3003WAT     H2 9221   2.361   4.947   1.456  0.0930 -0.7244 -1.0532
 3004WAT      O 9222   3.773   0.036   2.810 -0.6793 -0.7026  0.3189
 3004WAT     H1 9223   3.849   0.027   2.868  0.1019 -0.2290 -0.6106
 3004WAT     H2 9224   3.713   0.094   2.857  0.2386  0.2161  0.3725
 3005WAT      O 9225   2.736   3.204   3.600 -0.3562  0.4687 -0.0615
 3005WAT     H1 9226   2.784   3.160   3.530  1.9198  2.3945  0.1565
 3005WAT     H2 9227   2.661   3.147   3.618  0.3324 -1.2869 -2.3616
 3006WAT      O 9228   2.285   2.251   0.464 -0.2529  0.3879 -0.1851
 3006WAT     H1 9229   2.364   2.286   0.504  1.3676 -0.4197 -2.4747
 3006WAT     H2 9230   2.220   2.251   0.535  1.3895  2.2475  1.4393
 3007WAT      O 9231   0.901   4.553   1.954 -0.3904  0.0634 -0.1899
 3007WAT     H1 9232   0.927   4.469   1.917  1.1299  0.4065  0.0153
 3007WAT     H2 9233   0.889   4.536   2.047 -0.4039  0.0123 -0.2011
 3008WAT      O 9234   3.751   1.557   4.230  0.6596 -0.0170 -0.8551
 3008WAT     H1 9235   3.740   1.624   4.297  0.4743 -1.2587  0.3876
 3008WAT     H2 9236   3.843   1.530   4.238  0.9625  0.6472 -1.9106
 3009WAT      O 9237   3.244   3.366   1.126  0.2847 -0.0049  0.5065
 3009WAT     H1 9238   3.245   3.445   1.178 -1.1433  1.2768 -1.2798
 3009WAT     H2 9239   3.331   3.361   1.088  0.6443  0.2300  1.2853
 3010WAT      O 9240   3.043   1.898   3.268 -0.3247  0.8276 -0.1725
 3010WAT     H1 9241   3.129   1.937   3.249  0.3786 -0.6112 -0.1184
 3010WAT     H2 9242   2.984   1.973   3.276  1.0735  1.9093  0.5652
 3011WAT      O 9243   4.647   0.004   1.876 -0.0236 -0.1487  0.0769
 3011WAT     H1 9244   4.645  -0.006   1.971 -1.4927 -1.3331 -0.0322
 3011WAT     H2 9245   4.711   0.073   1.860 -0.7153  1.0327  2.0198
 3012WAT      O 9246   0.931   4.386   2.473  0.3552  0.1750 -0.2544
 3012WAT     H1 9247   1.005   4.413   2.418  0.1066 -0.0695 -0.7128
 3012WAT     H2 9248   0.969   4.326   2.537  0.5034 -0.1706 -0.6649
 3013WAT      O 9249   3.258   4.334   1.807 -0.2351  0.9021  0.1726
 3013WAT     H1 9250   3.332   4.344   1.868 -0.1848 -2.3881  0.8189
 3013WAT     H2 9251   3.188   4.296   1.860 -0.7992 -0.3812 -1.4085
 3014WAT      O 9252   1.500   3.548   2.103 -0.6952  0.1427  0.1431
 3014WAT     H1 9253   1.500   3.564   2.197  0.6164 -0.2451  0.2285
 3014WAT     H2 9254   1.416   3.582   2.073 -3.3074 -3.7904  2.1441
 3015WAT      O 9255   0.089   3.992   1.255 -0.3471  0.1651  0.0640
 3015WAT     H1 9256   0.110   3.904   1.287 -1.8035 -0.0913  0.3819
 3015WAT     H2 9257   0.173   4.028   1.228  0.2854 -1.2993 -0.0094
 3016WAT      O 9258   1.375   4.013   1.999 -0.2063  0.0454  0.2305
 3016WAT     H1 9259   1.340   3.967   2.075 -1.3642  0.5271  0.0214
 3016WAT     H2 9260   1.445   4.068   2.034  0.9988 -1.6045  0.5274
 3017WAT      O 9261   1.010   2.778   1.252  0.0543  0.1271 -0.4223
 3017WAT     H1 9262   0.950   2.822   1.191  0.2397  1.8482  0.5620
 3017WAT     H2 9263   1.096   2.813   1.228  0.2937 -0.2077 -0.0391
 3018WAT      O 9264   0.808   1.836   1.176  0.4008 -0.0302  0.3168
 3018WAT     H1 9265   0.729   1.791   1.206  0.8360 -1.4411 -0.5427
 3018WAT     H2 9266   0.824   1.904   1.242 -1.4968  0.2728  0.5203
 3019WAT      O 9267   3.911   2.646   2.601  0.3295 -0.0798  0.4828
 3019WAT     H1 9268   3.995   2.624   2.561  0.4552 -2.5095  1.8510
 3019WAT     H2 9269   3.847   2.631   2.530  0.9735  1.4197 -0.4525
 3020WAT      O 9270   3.761   4.659   1.312  0.1987  0.1727  0.5840
 3020WAT     H1 9271   3.783   4.588   1.251  3.4482  2.0298 -0.6165
 3020WAT     H2 9272   3.757   4.616   1.398  1.1243 -1.6077 -0.2066
 3021WAT      O 9273   2.887   3.876   5.236 -0.2062 -0.0106  0.1691
 3021WAT     H1 9274   2.931   3.854   5.154  0.7170  1.2972  0.2718
 3021WAT     H2 9275   2.822   3.942   5.212 -0.3692 -0.0867  0.3958
 3022WAT      O 9276   1.050   4.023   3.643  0.0904  0.1570 -0.0371
 3022WAT     H1 9277   0.959   4.052   3.644  0.2971  0.8280  0.0192
 3022WAT     H2 9278   1.055   3.961   3.570 -0.6504 -0.6958  0.6241
 3023WAT      O 9279   4.762   4.544   1.597  0.1586 -0.3203 -0.1887
 3023WAT     H1 9280   4.813   4.622   1.577 -0.1670  0.2849  1.1997
 3023WAT     H2 9281   4.826   4.483   1.635  0.0271  0.1001  0.7247
 3024WAT      O 9282   0.162   3.210   1.595  0.1851 -0.0197 -0.3086
 3024WAT     H1 9283   0.089   3.217   1.533  1.4208  1.3796 -1.6869
 3024WAT     H2 9284   0.224   3.276   1.566  1.6290 -0.5696  1.3719
 3025WAT      O 9285   1.347   5.081   2.610 -0.1504 -0.0206  0.4743
 3025WAT     H1 9286   1.302   5.116   2.687 -0.4348  1.1876 -0.2106
 3025WAT     H2 9287   1.310   5.129   2.536 -0.0626 -1.3368 -0.4600
 3026WAT      O 9288   2.689   5.213   1.405 -0.0081  0.1625  0.0490
 3026WAT     H1 9289   2.706   5.134   1.354  1.0531  0.6826 -0.4389
 3026WAT     H2 9290   2.729   5.197   1.490 -1.2333 -0.4595  0.5296
 3027WAT      O 9291   4.618   5.335   3.584 -0.5742 -0.3865 -0.4336
 3027WAT     H1 9292   4.643   5.334   3.492 -1.8349  0.2215 -0.7948
 3027WAT     H2 9293   4.660   5.256   3.620  2.3288  0.8294 -0.8264
 3028WAT      O 9294   4.337   4.044   0.533  0.3622  0.9529  0.4679
 3028WAT     H1 9295   4.410   4.072   0.587  0.5043 -0.7578  1.2258
 3028WAT     H2 9296   4.332   3.950   0.545 -1.3075  0.8737 -0.4111
 3029WAT      O 9297   3.247   5.370   3.700  0.2417  0.1269 -0.2480
 3029WAT     H1 9298   3.337   5.348   3.673 -0.1151 -1.0336 -0.5322
 3029WAT     H2 9299   3.259   5.416   3.783  1.0730 -0.7096  0.1234
 3030WAT      O 9300   3.645   4.203   1.500 -0.1418 -0.8807 -0.1236
 3030WAT     H1 9301   3.695   4.123   1.519 -1.1515 -1.4085  0.4115
 3030WAT     H2 9302   3.711   4.266   1.472  0.7977 -1.6101  0.3713
 3031WAT      O 9303   1.843   2.368   4.998  0.8476 -0.0974  0.3083
 3031WAT     H1 9304   1.854   2.414   5.081 -2.7591  0.3475  0.7288
 3031WAT     H2 9305   1.789   2.292   5.020 -1.3896  0.7569 -1.6668
 3032WAT      O 9306   0.294   4.224   3.868  0.2599  0.0746 -0.2725
 3032WAT     H1 9307   0.322   4.234   3.960 -1.0680  0.0495  0.1442
 3032WAT     H2 9308   0.279   4.130   3.858 -2.3585  0.3549  0.3538
 3033WAT      O 9309   1.342   2.371   5.572  0.4913  0.4197  0.2597
 3033WAT     H1 9310   1.426   2.356   5.616  1.0116  1.9807 -0.1431
 3033WAT     H2 9311   1.277   2.331   5.629  1.1443  2.3532  2.4899
 3034WAT      O 9312   0.131   3.931   3.504 -0.3629  0.5110 -0.1527
 3034WAT     H1 9313   0.057   3.992   3.510 -0.5573  0.2326  0.3384
 3034WAT     H2 9314   0.174   3.954   3.422 -0.2892  1.4770  0.1457
 3035WAT      O 9315   4.439   3.073   3.404  0.2458  0.9018  0.2030
 3035WAT     H1 9316   4.438   3.155   3.453 -1.4428  0.8064  0.3856
 3035WAT     H2 9317   4.392   3.093   3.323 -0.0568  0.1550  0.1849
 3036WAT      O 9318   0.161   5.665   3.907 -0.1712  0.5139 -0.3005
 3036WAT     H1 9319   0.175   5.576   3.874  1.5608  1.0716 -1.2262
 3036WAT     H2 9320   0.101   5.705   3.844 -1.0053 -0.0216  0.1569
 3037WAT      O 9321   4.834   0.164   2.271  0.2250  0.4369 -0.2617
 3037WAT     H1 9322   4.767   0.179   2.204  0.1221  1.3993  0.0312
 3037WAT     H2 9323   4.871   0.079   2.250 -1.2129 -0.2003 -0.3371
 3038WAT      O 9324   3.826   2.864   3.659  0.3839 -1.0280  0.0597
 3038WAT     H1 9325   3.887   2.909   3.601 -0.3514 -0.3841 -0.2217
 3038WAT     H2 9326   3.800   2.930   3.723 -0.2239 -1.2254  0.0235
 3039WAT      O 9327   1.874   0.308   2.382  0.0995 -0.0900 -0.3372
 3039WAT     H1 9328   1.968   0.317   2.396  0.3293 -3.0969  0.8130
 3039WAT     H2 9329   1.847   0.392   2.345  3.1408  1.0008 -0.3535
 3040WAT      O 9330   1.217   3.813   3.791 -0.0392  0.4015  0.7760
 3040WAT     H1 9331   1.215   3.814   3.886 -0.1027  0.3816  0.7750
 3040WAT     H2 9332   1.161   3.886   3.765 -1.7513 -0.8702  0.7378
 3041WAT      O 9333   0.088   4.383   3.081  0.1939 -0.1007  0.0827
 3041WAT     H1 9334   0.158   4.352   3.024 -0.1597  2.8365 -2.2010
 3041WAT     H2 9335   0.120   4.468   3.113 -1.3622  0.2224  0.8486
 3042WAT      O 9336   1.945   0.179   3.931 -0.1007  0.2654 -0.4668
 3042WAT     H1 9337   1.965   0.254   3.987 -1.4226 -0.9065  1.7241
 3042WAT     H2 9338   1.929   0.217   3.845 -0.9123  2.5552  0.6038
 3043WAT      O 9339   3.708   3.080   0.906  0.2309  0.2059  0.3372
 3043WAT     H1 9340   3.728   3.013   0.840  0.1861 -0.2497  0.7749
 3043WAT     H2 9341   3.619   3.108   0.886  0.5155  0.6947 -0.3130
 3044WAT      O 9342   2.412   0.789   2.248  0.4672  0.4940  0.4677
 3044WAT     H1 9343   2.342   0.736   2.286 -0.1252 -0.1539 -1.4321
 3044WAT     H2 9344   2.389   0.879   2.272 -0.7375  0.2464  0.3257
 3045WAT      O 9345   2.485   5.146   3.823  0.8395  0.3930 -0.0338
 3045WAT     H1 9346   2.393   5.164   3.805  1.2197  0.6255 -1.9903
 3045WAT     H2 9347   2.495   5.160   3.917 -1.0171  0.7870  0.1276
 3046WAT      O 9348   3.750   4.144   4.320  0.1592  0.1780  0.8339
 3046WAT     H1 9349   3.702   4.065   4.294 -0.0643  0.4253  0.4968
 3046WAT     H2 9350   3.839   4.128   4.290  0.6655 -0.9014  2.7068
 3047WAT      O 9351   3.812   2.590   1.475  0.3569 -0.0170 -0.6640
 3047WAT     H1 9352   3.732   2.571   1.426  0.4280 -0.3976 -0.6376
 3047WAT     H2 9353   3.837   2.679   1.449 -1.4123  1.1054  1.1292
 3048WAT      O 9354   4.676   1.877   3.669  1.1600  0.4927  0.1085
 3048WAT     H1 9355   4.615   1.927   3.723 -0.4521  1.2666 -2.2518
 3048WAT     H2 9356   4.729   1.827   3.731 -0.8737  0.9531  2.3422
 3049WAT      O 9357   2.735   4.486   3.351 -0.3333  0.0034 -0.5931
 3049WAT     H1 9358   2.732   4.488   3.446  0.3946 -0.7843 -0.5381
 3049WAT     H2 9359   2.656   4.531   3.323 -1.2552 -0.9541  0.3825
 3050WAT      O 9360   3.983   4.231   1.265 -0.2556 -0.0654 -0.4138
 3050WAT     H1 9361   3.949   4.148   1.300 -2.1081  0.3273 -1.1625
 3050WAT     H2 9362   3.990   4.288   1.342 -1.3110 -0.1735 -0.2179
 3051WAT      O 9363   1.793   3.562   2.089  0.0965 -0.1985  0.3091
 3051WAT     H1 9364   1.843   3.580   2.009  2.3210 -1.0357  1.4218
 3051WAT     H2 9365   1.702   3.575   2.064  0.8909  2.9012 -1.4655
 3052WAT      O 9366   2.906   2.769   2.863  0.2440 -0.4291 -0.2118
 3052WAT     H1 9367   2.831   2.739   2.914  0.1460  1.0364  0.5832
 3052WAT     H2 9368   2.937   2.847   2.910  1.3343 -0.1329 -1.3557
 3053WAT      O 9369   2.247   3.503   1.567  0.1887  0.2449 -0.6158
 3053WAT     H1 9370   2.325   3.557   1.555  0.0280  0.3802 -1.0835
 3053WAT     H2 9371   2.185   3.561   1.612  0.7991 -0.2687  0.9647
 3054WAT      O 9372   1.580   0.150   2.313 -0.2319 -0.7353  0.3150
 3054WAT     H1 9373   1.663   0.174   2.272 -1.3346 -0.8264 -2.1449
 3054WAT     H2 9374   1.559   0.064   2.278 -2.2241  0.0661 -0.6106
 3055WAT      O 9375   3.896   1.219   3.337  0.0839 -0.7621  0.6173
 3055WAT     H1 9376   3.849   1.273   3.401  1.5772  0.3032  0.8784
 3055WAT     H2 9377   3.972   1.272   3.313  2.4097 -3.2675  1.9023
 3056WAT      O 9378   1.915   4.411   3.150  0.0905 -0.4474  0.1776
 3056WAT     H1 9379   1.914   4.368   3.235 -1.1712  1.2230  1.0840
 3056WAT     H2 9380   1.887   4.501   3.169  0.3544  0.1326 -1.9297
 3057WAT      O 9381   3.620   0.072   1.414  0.1702  0.2777 -0.2868
 3057WAT     H1 9382   3.542   0.063   1.468  0.3658  1.6174  0.2657
 3057WAT     H2 9383   3.630   0.167   1.401  1.3035  0.0959 -0.9323
 3058WAT      O 9384   2.257   2.760   1.869  0.0481  0.3064 -0.6860
 3058WAT     H1 9385   2.314   2.835   1.886  0.9132 -0.0945 -1.7555
 3058WAT     H2 9386   2.241   2.722   1.955  1.5203  0.3413 -0.3819
 3059WAT      O 9387   2.320   1.012   1.670 -0.0976 -0.6566  0.3277
 3059WAT     H1 9388   2.314   1.020   1.575 -0.0346 -1.3835  0.2599
 3059WAT     H2 9389   2.259   1.078   1.703 -1.5311 -1.6582 -0.2393
 3060WAT      O 9390   4.714   1.930   1.296  0.1721  0.0113 -0.2895
 3060WAT     H1 9391   4.791   1.876   1.312 -0.5381 -1.0117 -0.2529
 3060WAT     H2 9392   4.732   1.972   1.212  0.8596 -0.0256 -0.1713
 3061WAT      O 9393   2.238   4.363   1.275  0.3907 -0.0715  0.1844
 3061WAT     H1 9394   2.222   4.440   1.220 -0.2746 -1.1406 -1.1754
 3061WAT     H2 9395   2.296   4.395   1.345  3.7429  0.7789 -2.6884
 3062WAT      O 9396   1.192   3.539   2.018 -0.0317 -0.0911 -0.1337
 3062WAT     H1 9397   1.131   3.569   1.951  0.9367  1.0885 -0.5419
 3062WAT     H2 9398   1.160   3.579   2.099  1.8067  3.1758 -0.8255
 3063WAT      O 9399   2.814   1.151   2.214  0.0687  0.4396  0.2397
 3063WAT     H1 9400   2.763   1.198   2.280  0.5400 -0.1040  1.0033
 3063WAT     H2 9401   2.902   1.145   2.252 -0.0101 -1.1672  0.2191
 3064WAT      O 9402   1.072   1.340   1.024  0.4384 -0.2355 -0.4272
 3064WAT     H1 9403   1.045   1.267   0.968  0.4267 -0.1097 -0.5867
 3064WAT     H2 9404   1.122   1.299   1.094 -3.2067 -0.9737  2.0419
 3065WAT      O 9405   1.996   2.758   1.453  0.1570 -0.2726 -0.1045
 3065WAT     H1 9406   1.999   2.837   1.398  0.7578 -0.6621 -0.6537
 3065WAT     H2 9407   1.939   2.698   1.406  1.7517 -1.1251 -1.0659
 3066WAT      O 9408   4.008   2.009   4.017 -0.3881 -0.3170 -0.2044
 3066WAT     H1 9409   4.015   1.918   4.046 -2.4549 -0.3064  0.4983
 3066WAT     H2 9410   3.967   2.004   3.931 -0.0973 -0.0740 -0.3564
 3067WAT      O 9411   1.357   2.587   1.528  0.3278 -0.2383  0.2279
 3067WAT     H1 9412   1.299   2.601   1.453 -0.3457 -0.8099  0.6292
 3067WAT     H2 9413   1.439   2.558   1.489  0.0696 -0.2719 -0.3017
 3068WAT      O 9414   2.403   1.124   1.114 -0.8581 -0.0231  0.0787
 3068WAT     H1 9415   2.396   1.214   1.144 -0.0233  0.5663 -1.3946
 3068WAT     H2 9416   2.329   1.112   1.054 -0.8215 -0.2423  0.0734
 3069WAT      O 9417   4.461   4.435   1.147 -0.6519  0.4439 -0.0942
 3069WAT     H1 9418   4.383   4.380   1.139  0.3466 -0.9405 -0.9300
 3069WAT     H2 9419   4.534   4.373   1.150  0.4869  1.7061 -0.3629
 3070WAT      O 9420   0.203   1.517   0.981 -0.0589 -1.0959  0.2193
 3070WAT     H1 9421   0.245   1.582   1.038  0.1141 -0.5681 -0.4948
 3070WAT     H2 9422   0.119   1.499   1.024 -1.3442  1.6234 -0.8832
 3071WAT      O 9423   3.339   2.384   4.532  0.0788 -0.4553 -0.4701
 3071WAT     H1 9424   3.377   2.306   4.491  0.1134 -1.6025  1.5886
 3071WAT     H2 9425   3.398   2.402   4.606 -1.1805  0.1324  0.4191
 3072WAT      O 9426   0.248   1.744   0.256  0.4337 -0.4356  0.4951
 3072WAT     H1 9427   0.224   1.652   0.248  1.3452 -0.7642  1.3083
 3072WAT     H2 9428   0.232   1.765   0.348  1.1700 -0.0703  0.5478
 3073WAT      O 9429   3.482   4.708   1.364 -0.3656 -0.3817  0.5574
 3073WAT     H1 9430   3.570   4.703   1.328 -0.7038 -2.2169 -0.0955
 3073WAT     H2 9431   3.458   4.800   1.356  0.4563 -0.3083 -1.8144
 3074WAT      O 9432   3.208   2.174   2.280 -0.0738  0.1426 -0.3049
 3074WAT     H1 9433   3.158   2.200   2.357 -0.2353 -2.2530  0.4823
 3074WAT     H2 9434   3.299   2.176   2.308 -0.0242  0.5346 -0.4799
 3075WAT      O 9435   2.105   5.508   2.506 -0.2306 -0.5840  0.0597
 3075WAT     H1 9436   2.107   5.417   2.476  0.1869 -0.2937 -0.8480
 3075WAT     H2 9437   2.023   5.515   2.555 -0.9326 -1.1158 -0.9781
 3076WAT      O 9438   4.238   3.579   1.798 -0.2772  0.7436 -0.5140
 3076WAT     H1 9439   4.224   3.584   1.893 -1.1851 -1.2648 -0.4835
 3076WAT     H2 9440   4.312   3.518   1.788 -1.6522 -0.9220 -1.0997
 3077WAT      O 9441   1.459   4.930   2.385  0.9609 -0.2974  0.2807
 3077WAT     H1 9442   1.464   4.968   2.297 -0.6697 -0.2940  0.1535
 3077WAT     H2 9443   1.414   4.997   2.437 -0.7701 -1.4523  0.3684
 3078WAT      O 9444   3.440   4.140   0.846  0.1398  0.3139 -0.0104
 3078WAT     H1 9445   3.351   4.150   0.879  0.4194  0.4230  0.7442
 3078WAT     H2 9446   3.466   4.229   0.821  0.9884  0.8196  2.3623
 3079WAT      O 9447   4.020   1.062   2.808  0.1195  0.3611 -0.6532
 3079WAT     H1 9448   4.050   1.020   2.889 -1.0601  1.1333  0.2125
 3079WAT     H2 9449   4.040   1.155   2.821  1.9853  0.2405 -2.2178
 3080WAT      O 9450   2.766   4.146   2.517  0.6345 -0.1856 -0.3514
 3080WAT     H1 9451   2.773   4.051   2.517 -2.4142 -0.5118 -0.5028
 3080WAT     H2 9452   2.793   4.172   2.429  3.2428 -0.6686  0.2465
 3081WAT      O 9453   0.424   3.144   2.374  0.0200 -0.7580  0.3866
 3081WAT     H1 9454   0.390   3.203   2.307 -0.4583 -1.6263 -0.1596
 3081WAT     H2 9455   0.364   3.069   2.371  1.5527 -1.9969 -0.0881
 3082WAT      O 9456   1.918   4.218   2.328  0.3120  0.5278 -0.2511
 3082WAT     H1 9457   1.859   4.263   2.389 -0.1586 -0.6381  0.1833
 3082WAT     H2 9458   1.889   4.127   2.330  1.8300  0.0161 -0.4104
 3083WAT      O 9459   2.333   3.360   5.766  0.1318  0.5484 -0.6701
 3083WAT     H1 9460   2.287   3.373   5.683 -0.7451 -1.3875 -0.5379
 3083WAT     H2 9461   2.329   3.266   5.781  0.5301  0.8223  1.4448
 3084WAT      O 9462   2.254   2.637   1.530  0.0039 -0.1921 -0.2465
 3084WAT     H1 9463   2.168   2.672   1.508  0.1977  0.5275  0.1088
 3084WAT     H2 9464   2.236   2.550   1.566 -0.6599  0.3094  0.6753
 3085WAT      O 9465   2.030   3.337   1.552  0.0896  0.4979  0.3136
 3085WAT     H1 9466   2.014   3.354   1.459  0.9794 -1.4738 -0.2661
 3085WAT     H2 9467   2.116   3.375   1.569 -0.0698  0.8529  0.3251
 3086WAT      O 9468   4.655   0.990   3.067 -0.1083  0.0998  0.0102
 3086WAT     H1 9469   4.652   0.902   3.103 -1.4103  0.2685  0.3767
 3086WAT     H2 9470   4.575   0.997   3.014 -0.1013  1.0966  0.1073
 3087WAT      O 9471   0.153   4.312   4.318 -0.7221  0.1063  0.3492
 3087WAT     H1 9472   0.238   4.317   4.273 -1.3956  1.6783 -0.8398
 3087WAT     H2 9473   0.166   4.246   4.386  1.4510  0.3057  0.1993
 3088WAT      O 9474   0.987   3.939   0.982  0.5498  0.6948  0.1605
 3088WAT     H1 9475   0.974   3.850   1.017 -0.9706  1.1436  0.8145
 3088WAT     H2 9476   0.917   3.991   1.021  1.2185  2.1312 -0.4681
 3089WAT      O 9477   2.250   1.641   1.466  0.2698  0.1046 -0.3058
 3089WAT     H1 9478   2.332   1.667   1.507  0.6093  0.1752 -1.0129
 3089WAT     H2 9479   2.236   1.551   1.495  1.7000 -0.6614 -1.8428
 3090WAT      O 9480   3.619   4.747   2.127 -0.1376 -0.0142 -0.0882
 3090WAT     H1 9481   3.691   4.683   2.123  0.2198  0.4645 -2.5798
 3090WAT     H2 9482   3.660   4.826   2.162  0.8841  0.5670 -2.4211
 3091WAT      O 9483   0.568   2.097   1.461  0.1309 -0.8807 -0.5097
 3091WAT     H1 9484   0.530   2.031   1.520 -0.5645  0.1373  0.2212
 3091WAT     H2 9485   0.551   2.180   1.505 -0.3064 -0.0905 -2.0968
 3092WAT      O 9486   1.278   3.500   2.887 -0.2225  0.0592  0.2659
 3092WAT     H1 9487   1.315   3.539   2.966  1.0372 -0.7218  0.0871
 3092WAT     H2 9488   1.200   3.454   2.918  0.2852 -0.2856  1.0877
 3093WAT      O 9489   1.821   3.431   5.218 -0.3020  0.0017 -1.1221
 3093WAT     H1 9490   1.840   3.515   5.260  1.3114 -1.8297  2.2148
 3093WAT     H2 9491   1.727   3.420   5.229 -0.0696 -0.0210  1.5239
 3094WAT      O 9492   0.330   1.952   1.149 -0.5500 -0.4754 -0.1813
 3094WAT     H1 9493   0.262   2.010   1.114 -1.8212  1.5109  4.6693
 3094WAT     H2 9494   0.412   1.992   1.122 -1.3786  0.6682 -1.1190
 3095WAT      O 9495   1.558   4.168   2.150 -0.0239  0.6831  0.0755
 3095WAT     H1 9496   1.566   4.125   2.235  1.4949  0.8232  0.0402
 3095WAT     H2 9497   1.560   4.262   2.170  1.1565  0.7220 -0.1454
 3096WAT      O 9498   0.701   3.622   2.756 -0.2958  0.3018 -0.1622
 3096WAT     H1 9499   0.640   3.570   2.705 -1.2271  0.1916  1.0142
 3096WAT     H2 9500   0.680   3.713   2.733  0.9201  0.2194 -1.7539
 3097WAT      O 9501   0.193   2.720   5.080  0.6661  0.7902  0.2819
 3097WAT     H1 9502   0.268   2.725   5.021 -0.7918 -1.0413 -1.9320
 3097WAT     H2 9503   0.122   2.686   5.025 -1.3301  0.7943  2.6808
 3098WAT      O 9504   0.460   2.987   5.108 -0.2994  0.5930 -0.2822
 3098WAT     H1 9505   0.482   2.894   5.100  0.5403  0.8289 -0.8526
 3098WAT     H2 9506   0.472   3.022   5.020 -1.0182  1.1691 -0.1663
 3099WAT      O 9507   1.461   5.499   2.991 -0.1070  0.0020  0.0622
 3099WAT     H1 9508   1.476   5.494   2.897 -0.1775  0.6054  0.0109
 3099WAT     H2 9509   1.368   5.517   3.000 -0.5256 -2.0882  0.3262
 3100WAT      O 9510   0.389   4.901   1.335  0.1957 -0.2594 -0.2742
 3100WAT     H1 9511   0.472   4.943   1.313  0.3658 -0.0328  0.7548
 3100WAT     H2 9512   0.330   4.974   1.355 -0.1848 -0.4281 -0.7680
 3101WAT      O 9513   0.291   1.802   2.016  0.0421  0.1930  0.1558
 3101WAT     H1 9514   0.280   1.883   2.067  0.3660 -0.5038  1.3752
 3101WAT     H2 9515   0.204   1.764   2.013 -0.2277  0.8535 -0.9187
 3102WAT      O 9516   3.617   2.014   1.338 -0.6878  0.3242  0.5671
 3102WAT     H1 9517   3.576   1.938   1.379  0.2350 -0.3083  0.3555
 3102WAT     H2 9518   3.657   1.979   1.258 -2.2703  1.4958 -0.8072
 3103WAT      O 9519   3.506   5.275   2.100  0.1445 -0.7310  0.1999
 3103WAT     H1 9520   3.434   5.235   2.051  0.4696 -2.2133  0.8778
 3103WAT     H2 9521   3.471   5.284   2.189 -0.0669  0.9482 -0.0022
 3104WAT      O 9522   4.018   0.008   2.927 -0.4582 -0.4419 -0.3170
 3104WAT     H1 9523   4.081  -0.033   2.986 -0.6433 -0.1978  0.0553
 3104WAT     H2 9524   4.063   0.087   2.896 -0.2809 -0.6778 -0.6714
 3105WAT      O 9525   1.459   1.497   2.744 -0.1244  0.5316 -0.1507
 3105WAT     H1 9526   1.417   1.448   2.815 -1.1949  0.1896 -0.9910
 3105WAT     H2 9527   1.451   1.440   2.667  1.4190  0.7030 -0.4651
 3106WAT      O 9528   1.652   3.149   1.275 -0.3955 -0.4030  0.3028
 3106WAT     H1 9529   1.672   3.073   1.328 -0.7274 -1.0913 -0.5330
 3106WAT     H2 9530   1.675   3.124   1.185 -1.9233 -0.1023 -0.2193
 3107WAT      O 9531   0.819   3.407   0.663 -0.6700 -0.0938 -0.3952
 3107WAT     H1 9532   0.740   3.461   0.666 -0.6047  0.0438 -1.0239
 3107WAT     H2 9533   0.823   3.375   0.573 -0.0662 -0.1905 -0.3392
 3108WAT      O 9534   2.556   2.484   0.277 -0.2508 -0.5484 -0.1832
 3108WAT     H1 9535   2.583   2.522   0.193  0.2140 -0.6203 -0.0696
 3108WAT     H2 9536   2.622   2.515   0.339  0.9692 -2.6429 -0.3327
 3109WAT      O 9537   0.839   3.233   2.378 -0.0520  0.0454 -0.2873
 3109WAT     H1 9538   0.902   3.223   2.307  0.8368  0.5283  0.4036
 3109WAT     H2 9539   0.830   3.145   2.415  1.0941  0.1608  0.3133
 3110WAT      O 9540   0.598   5.186   3.217  0.2152 -0.1751  0.6792
 3110WAT     H1 9541   0.569   5.253   3.279  1.1453 -0.0778  1.0311
 3110WAT     H2 9542   0.692   5.202   3.207 -0.1694  1.0304 -2.2454
 3111WAT      O 9543   4.444   3.939   4.508 -0.2913  0.0942  0.3321
 3111WAT     H1 9544   4.517   4.001   4.502 -1.1879  1.3802  1.6849
 3111WAT     H2 9545   4.441   3.915   4.601 -0.1006 -1.8668 -0.1335
 3112WAT      O 9546   4.908   0.732   1.417  0.0248  0.2258  0.0300
 3112WAT     H1 9547   4.900   0.801   1.483 -0.7187  2.2344 -2.0247
 3112WAT     H2 9548   4.818   0.717   1.388  0.0535 -2.3323  1.0393
 3113WAT      O 9549   3.526   0.704   1.501  0.2012 -0.3622 -0.7333
 3113WAT     H1 9550   3.570   0.661   1.427  0.0277  0.1298 -1.1226
 3113WAT     H2 9551   3.595   0.714   1.566  0.8018  0.8353 -1.5209
 3114WAT      O 9552   1.038   3.914   2.191 -0.1285 -0.1490  0.4165
 3114WAT     H1 9553   1.062   3.999   2.155 -1.1137  0.2054  0.5809
 3114WAT     H2 9554   0.944   3.918   2.203 -0.2634 -1.4549 -0.0385
 3115WAT      O 9555   1.560   0.661   2.918 -0.2855 -0.5607  0.1116
 3115WAT     H1 9556   1.606   0.609   2.852 -0.2960 -1.8407  1.0804
 3115WAT     H2 9557   1.478   0.613   2.933  0.0701 -0.7315  1.6261
 3116WAT      O 9558   4.107   4.957   3.754 -0.0627  0.1913  0.0907
 3116WAT     H1 9559   4.065   4.921   3.675  0.9293  2.4638 -1.6020
 3116WAT     H2 9560   4.200   4.935   3.743 -0.2125 -1.8297  2.0891
 3117WAT      O 9561   2.727   3.374   2.453 -0.5063  0.2031 -0.3598
 3117WAT     H1 9562   2.716   3.305   2.387  1.9242 -1.4333  0.8061
 3117WAT     H2 9563   2.738   3.455   2.402  0.7354 -0.9246 -1.9675
 3118WAT      O 9564   4.469   1.112   2.271  0.1957 -0.3661  0.1593
 3118WAT     H1 9565   4.486   1.058   2.348 -0.8071  1.3377  1.6479
 3118WAT     H2 9566   4.526   1.188   2.281 -1.5800  0.9783  0.4583
 3119WAT      O 9567   1.330   5.107   2.126  0.4702  0.1381  0.3562
 3119WAT     H1 9568   1.299   5.132   2.213 -2.9002 -0.9213 -0.3781
 3119WAT     H2 9569   1.321   5.187   2.074  0.3930  0.2054  0.4717
 3120WAT      O 9570   0.721   2.620   0.678  0.6189  0.2153  0.5496
 3120WAT     H1 9571   0.680   2.534   0.667 -1.3198  1.0363  1.0085
 3120WAT     H2 9572   0.815   2.602   0.673  0.2387 -1.7382 -0.6318
 3121WAT      O 9573   1.344   3.007   0.352 -0.0243 -0.6636 -0.1318
 3121WAT     H1 9574   1.425   3.039   0.313  0.4057  0.3437  1.4759
 3121WAT     H2 9575   1.368   2.984   0.442 -1.2627 -1.5207  0.0012
 3122WAT      O 9576   1.863   1.568   0.758  0.2538 -0.1847  0.3456
 3122WAT     H1 9577   1.904   1.651   0.733  0.2794  0.0296  1.0689
 3122WAT     H2 9578   1.802   1.549   0.687 -1.5581  1.7022  1.3092
 3123WAT      O 9579   4.901   4.346   1.696  0.1287 -0.5822 -0.3937
 3123WAT     H1 9580   4.845   4.269   1.706  0.1184 -0.7735 -1.7108
 3123WAT     H2 9581   4.990   4.311   1.696  0.2156 -0.3917  0.6832
 3124WAT      O 9582   2.306   3.486   0.429  0.1831 -0.2593  0.1645
 3124WAT     H1 9583   2.367   3.518   0.496  0.1895 -0.7141  0.3841
 3124WAT     H2 9584   2.330   3.533   0.350 -0.4742  1.0380  0.7080
 3125WAT      O 9585   1.091   4.416   0.688 -0.5174 -0.0361  0.2511
 3125WAT     H1 9586   1.172   4.391   0.733 -0.7778  1.2889  1.5474
 3125WAT     H2 9587   1.098   4.511   0.680 -1.7014  0.0285 -0.1200
 3126WAT      O 9588   4.786   2.245   5.715 -0.3490 -0.2115 -0.1893
 3126WAT     H1 9589   4.786   2.167   5.660  1.9071  0.2394 -0.9284
 3126WAT     H2 9590   4.793   2.318   5.652  0.8012  0.3971  0.6212
 3127WAT      O 9591   4.311   1.278   2.128 -0.7577  0.4614  0.2246
 3127WAT     H1 9592   4.235   1.226   2.100 -0.1502 -0.9962  1.1785
 3127WAT     H2 9593   4.372   1.214   2.163 -0.5729  1.9482  2.8424
 3128WAT      O 9594   3.575   0.507   3.438 -0.0318  0.1509  0.1131
 3128WAT     H1 9595   3.670   0.507   3.424 -0.0014 -0.3334  0.3262
 3128WAT     H2 9596   3.546   0.591   3.402  0.3108 -0.2055 -1.0544
 3129WAT      O 9597   0.357   0.074   2.900 -0.8105  1.1314  0.0347
 3129WAT     H1 9598   0.399   0.145   2.949  0.3008  0.2655  0.3872
 3129WAT     H2 9599   0.295   0.118   2.843 -2.0021  2.2117  2.0510
 3130WAT      O 9600   1.623   3.868   4.058  0.5335 -0.4184 -0.3818
 3130WAT     H1 9601   1.608   3.782   4.097 -0.0151  0.0522  0.4787
 3130WAT     H2 9602   1.606   3.855   3.965  1.2524 -1.4185 -0.3928
 3131WAT      O 9603   0.849   0.033   1.586 -0.3123  0.5993  0.9021
 3131WAT     H1 9604   0.919  -0.001   1.530  0.7327  1.2157  1.8063
 3131WAT     H2 9605   0.885   0.030   1.674 -1.5287  0.7021  1.4186
 3132WAT      O 9606   3.877   4.645   3.361 -0.0193  0.3782 -0.0557
 3132WAT     H1 9607   3.787   4.677   3.374 -0.4311 -0.4169 -0.7899
 3132WAT     H2 9608   3.874   4.603   3.275  0.5381 -1.4141  0.7631
 3133WAT      O 9609   4.339   1.154   4.038  0.4746  0.0336  1.0393
 3133WAT     H1 9610   4.391   1.229   4.066  0.7025 -0.3357  1.6275
 3133WAT     H2 9611   4.296   1.183   3.957  0.8951  0.6449  1.0288
 3134WAT      O 9612   1.465   1.213   2.179 -0.0591 -0.0494 -0.5540
 3134WAT     H1 9613   1.392   1.239   2.236  0.0813  1.3635 -0.9850
 3134WAT     H2 9614   1.487   1.124   2.208 -1.1705 -0.0512  0.3734
 3135WAT      O 9615   1.855   3.785   2.568 -0.5052 -0.6235 -0.5370
 3135WAT     H1 9616   1.888   3.873   2.554 -2.0727 -0.0589 -0.8157
 3135WAT     H2 9617   1.828   3.755   2.482 -2.0095 -0.5275 -0.1162
 3136WAT      O 9618   0.949   4.644   2.624  0.1293 -0.0261 -0.0458
 3136WAT     H1 9619   0.933   4.579   2.555 -1.3873  2.6401 -2.4757
 3136WAT     H2 9620   1.028   4.690   2.595  0.6231 -0.1340  1.1040
 3137WAT      O 9621   1.683   4.669   3.771 -0.4154 -0.0998  0.4844
 3137WAT     H1 9622   1.595   4.679   3.808 -0.2967 -1.4396  1.1881
 3137WAT     H2 9623   1.742   4.700   3.840 -0.2290 -1.9360  1.2222
 3138WAT      O 9624   0.862   3.781   5.098 -0.2337  0.3280  0.1821
 3138WAT     H1 9625   0.854   3.760   5.005 -0.7445  1.6680 -0.0965
 3138WAT     H2 9626   0.953   3.760   5.120 -0.0825  0.1068 -0.6417
 3139WAT      O 9627   0.851   4.141   1.508 -0.0703  0.2769  0.1529
 3139WAT     H1 9628   0.902   4.189   1.573  0.6271 -0.2315  0.0013
 3139WAT     H2 9629   0.826   4.208   1.444 -0.0235  0.6248  0.4923
 3140WAT      O 9630   4.379   3.956   0.101  0.3253  0.7843  0.6556
 3140WAT     H1 9631   4.427   4.014   0.161  0.6908 -0.7549  1.9197
 3140WAT     H2 9632   4.446   3.922   0.042  0.0692  1.7875 -0.2563
 3141WAT      O 9633   4.237   0.217   1.798  0.5370 -0.4637  0.1428
 3141WAT     H1 9634   4.278   0.136   1.770  0.2927  0.0009 -1.6596
 3141WAT     H2 9635   4.183   0.244   1.724 -0.9592  0.3214  1.4536
 3142WAT      O 9636   3.854   0.373   1.561  0.4841 -0.4136 -0.3948
 3142WAT     H1 9637   3.862   0.323   1.643  0.0749 -1.5926 -1.0526
 3142WAT     H2 9638   3.944   0.377   1.528  0.6173 -0.1358 -0.0032
 3143WAT      O 9639   0.870   3.506   2.368  0.1466 -0.0329 -0.0265
 3143WAT     H1 9640   0.821   3.558   2.432 -0.2128  0.7735 -0.9257
 3143WAT     H2 9641   0.851   3.415   2.391 -1.1421  0.2588  0.1524
 3144WAT      O 9642   2.855   0.183   2.031  0.1070 -0.5935  0.6148
 3144WAT     H1 9643   2.760   0.188   2.032 -0.0527 -2.6949  1.9759
 3144WAT     H2 9644   2.884   0.274   2.029 -1.9130  0.0835  0.1491
 3145WAT      O 9645   0.869   3.454   2.043  0.2863  0.5960  0.6614
 3145WAT     H1 9646   0.794   3.482   2.095  0.1968 -0.3313  1.0389
 3145WAT     H2 9647   0.921   3.399   2.102  1.4040  1.4223  0.4941
 3146WAT      O 9648   2.960   0.841   3.269  0.2204  0.1230 -0.1964
 3146WAT     H1 9649   2.945   0.746   3.273 -1.0805  0.3346  0.4055
 3146WAT     H2 9650   3.044   0.850   3.225  1.1725 -1.3800  1.2050
 3147WAT      O 9651   1.485   4.724   0.962  0.9249  0.0374 -0.1627
 3147WAT     H1 9652   1.421   4.781   1.004  1.0025  1.4007 -1.7746
 3147WAT     H2 9653   1.438   4.643   0.944  0.5002 -0.0419  1.2068
 3148WAT      O 9654   1.914   2.653   2.127  0.2099 -0.5839  0.1559
 3148WAT     H1 9655   1.853   2.726   2.125 -0.3947 -0.9916  1.9203
 3148WAT     H2 9656   1.858   2.575   2.131  0.8423 -1.0837 -0.4573
 3149WAT      O 9657   0.467   5.415   3.935  0.1321  0.4918  0.3477
 3149WAT     H1 9658   0.541   5.411   3.874  0.4710  2.9486  0.4948
 3149WAT     H2 9659   0.502   5.381   4.017  0.7157  0.4517  0.0882
 3150WAT      O 9660   3.524   5.363   3.637  0.4678 -0.1410 -0.2767
 3150WAT     H1 9661   3.541   5.420   3.712 -0.3610  2.8158 -2.2097
 3150WAT     H2 9662   3.603   5.309   3.630  0.9020  0.0447  2.1848
 3151WAT      O 9663   0.874   0.735   1.580 -0.1074  0.2136  0.3020
 3151WAT     H1 9664   0.796   0.782   1.611 -0.3955 -0.7531  1.0865
 3151WAT     H2 9665   0.870   0.650   1.624  1.0891 -0.0655 -0.0904
 3152WAT      O 9666   2.103   3.867   0.287 -0.7838  0.7355  0.0157
 3152WAT     H1 9667   2.009   3.861   0.268 -0.4214  1.5135 -2.3801
 3152WAT     H2 9668   2.116   3.958   0.314 -0.7897  0.4872  0.8669
 3153WAT      O 9669   1.502   2.690   1.194  0.2891  0.0892 -0.3509
 3153WAT     H1 9670   1.457   2.610   1.221  0.3344  0.2133  0.0995
 3153WAT     H2 9671   1.543   2.667   1.110 -0.8558  0.0721 -0.9217
 3154WAT      O 9672   2.749   3.597   5.164 -0.2896  0.3684 -0.2818
 3154WAT     H1 9673   2.675   3.596   5.226 -1.6434  0.4567 -1.8244
 3154WAT     H2 9674   2.730   3.670   5.105  0.7147 -0.0003 -1.0868
 3155WAT      O 9675   1.517   3.602   2.384  0.1749  0.8436  0.2653
 3155WAT     H1 9676   1.432   3.626   2.422 -0.0842  0.3793 -0.0103
 3155WAT     H2 9677   1.568   3.567   2.456  0.0209  0.8348  0.3691
 3156WAT      O 9678   2.189   4.354   2.520 -0.3591 -0.6821  0.3921
 3156WAT     H1 9679   2.225   4.361   2.608 -0.5764 -0.2405  0.4480
 3156WAT     H2 9680   2.100   4.388   2.528 -0.0671  0.2636 -0.1977
 3157WAT      O 9681   4.489   1.036   0.854 -0.4716 -0.0823  0.2844
 3157WAT     H1 9682   4.415   1.057   0.797 -1.4115 -0.5562  1.3228
 3157WAT     H2 9683   4.517   1.121   0.889 -0.4531  0.1058 -0.1766
 3158WAT      O 9684   3.275   5.356   1.789 -0.1558  0.1344  0.5721
 3158WAT     H1 9685   3.310   5.334   1.702 -1.6245 -0.4465  0.0976
 3158WAT     H2 9686   3.295   5.280   1.843  1.2727  0.7331  0.9232
 3159WAT      O 9687   0.424   3.850   1.822 -0.4629  0.5701 -0.6070
 3159WAT     H1 9688   0.391   3.772   1.777 -0.0292  1.1969 -2.0873
 3159WAT     H2 9689   0.417   3.920   1.757  0.3304  1.4998  0.2664
 3160WAT      O 9690   3.499   2.005   4.235  0.3460  0.2476  0.1484
 3160WAT     H1 9691   3.534   2.024   4.148 -0.1194 -0.2273 -0.1526
 3160WAT     H2 9692   3.448   1.924   4.223  0.4654  0.0494  0.9075
 3161WAT      O 9693   1.720   3.490   3.001  0.1415 -0.6544  0.5062
 3161WAT     H1 9694   1.719   3.527   2.912  1.8569  0.4859  0.9046
 3161WAT     H2 9695   1.630   3.460   3.015 -0.5771  0.5907 -1.0309
 3162WAT      O 9696   1.389   2.199   3.726 -0.3954 -0.2570 -0.2741
 3162WAT     H1 9697   1.379   2.260   3.798 -0.6528  0.6419 -1.0589
 3162WAT     H2 9698   1.464   2.233   3.676 -0.8497 -0.2894 -0.9916
 3163WAT      O 9699   0.968   2.464   2.726 -0.2440  0.2502 -0.3873
 3163WAT     H1 9700   0.966   2.497   2.816 -2.9234 -0.5733 -0.0619
 3163WAT     H2 9701   0.888   2.497   2.687 -0.0582 -0.9741 -1.8960
 3164WAT      O 9702   2.467   1.146   0.754 -0.2346  0.1006  0.2477
 3164WAT     H1 9703   2.451   1.205   0.681  0.3208 -1.8275 -1.5186
 3164WAT     H2 9704   2.383   1.103   0.769 -0.1983  0.0592  0.3347
 3165WAT      O 9705   3.627   2.280   1.386  0.8127  0.5712 -0.0105
 3165WAT     H1 9706   3.643   2.191   1.354  0.0878  0.5113 -0.2295
 3165WAT     H2 9707   3.547   2.272   1.438  1.7242  0.7457  1.4803
 3166WAT      O 9708   2.628   1.379   2.677 -0.3198  0.0600 -0.1221
 3166WAT     H1 9709   2.652   1.352   2.589  1.0977  0.0481  0.2517
 3166WAT     H2 9710   2.707   1.420   2.712 -1.1654  0.9467  0.7998
 3167WAT      O 9711   3.673   4.557   3.021 -0.8906 -0.2441 -0.4339
 3167WAT     H1 9712   3.763   4.567   3.053 -1.3544 -1.7305  1.5685
 3167WAT     H2 9713   3.669   4.467   2.989 -1.4756  0.0610 -1.2364
 3168WAT      O 9714   0.572   1.243   1.832 -0.3646  0.5775 -0.0338
 3168WAT     H1 9715   0.519   1.245   1.911 -0.6213 -0.2829 -0.1745
 3168WAT     H2 9716   0.549   1.324   1.786  0.8217  1.7985  1.4030
 3169WAT      O 9717   2.681   3.537   0.887  0.3000  0.4856  0.1170
 3169WAT     H1 9718   2.668   3.627   0.915 -0.2548  0.2230  0.7228
 3169WAT     H2 9719   2.770   3.515   0.915 -0.4646  0.0067  2.3661
 3170WAT      O 9720  -0.005   3.731   1.452  0.7592  0.1696  0.0494
 3170WAT     H1 9721  -0.008   3.693   1.539  0.4836  1.9912  0.8897
 3170WAT     H2 9722   0.088   3.736   1.430  0.8048 -0.7281  0.0332
 3171WAT      O 9723   4.707   1.215   4.037 -0.2944 -0.1554 -0.2179
 3171WAT     H1 9724   4.706   1.200   4.132 -2.2488 -0.0642 -0.1738
 3171WAT     H2 9725   4.693   1.128   3.999 -0.0951 -0.1059 -0.4068
 3172WAT      O 9726   0.956   3.412   3.334 -0.1556  0.1588  0.1285
 3172WAT     H1 9727   0.928   3.420   3.425  0.2153  0.0421  0.2519
 3172WAT     H2 9728   0.892   3.353   3.294  0.4953 -0.9057  0.6537
 3173WAT      O 9729   1.111   5.661   4.102  0.5153 -0.0304 -0.4105
 3173WAT     H1 9730   1.199   5.626   4.118  0.6200  0.6061  0.5016
 3173WAT     H2 9731   1.076   5.606   4.032  1.3345 -0.8206 -0.2253
 3174WAT      O 9732   4.105   2.496   1.109 -0.1880  0.0513  0.5580
 3174WAT     H1 9733   4.012   2.504   1.090 -0.2690 -1.7874  0.0192
 3174WAT     H2 9734   4.108   2.463   1.199 -0.0415  0.4749  0.7099
 3175WAT      O 9735   0.272   3.232   3.207  0.0415  0.4806 -0.5454
 3175WAT     H1 9736   0.238   3.308   3.254 -0.6034 -0.5106  0.6781
 3175WAT     H2 9737   0.233   3.157   3.253  2.0467 -0.6501 -0.5630
 3176WAT      O 9738   3.476   1.496   1.184  0.3819 -0.0524  0.4696
 3176WAT     H1 9739   3.464   1.462   1.095  0.0433  0.5401  0.2899
 3176WAT     H2 9740   3.456   1.589   1.178  1.6239  0.2693  0.8895
 3177WAT      O 9741   0.293   4.294   2.944  0.1783 -0.3462 -0.2641
 3177WAT     H1 9742   0.354   4.247   2.999 -0.0445 -0.0772  0.2192
 3177WAT     H2 9743   0.348   4.345   2.885  0.4181 -1.0158 -0.6307
 3178WAT      O 9744   2.191   0.343   2.438 -0.3112 -0.6139 -0.0473
 3178WAT     H1 9745   2.247   0.342   2.516  0.7595 -1.0637 -0.7958
 3178WAT     H2 9746   2.188   0.252   2.409  2.1273 -0.0739 -2.4392
 3179WAT      O 9747   4.113   2.622   3.929 -0.1091 -0.8747  0.6978
 3179WAT     H1 9748   4.045   2.676   3.969 -1.8252 -2.3231 -0.1381
 3179WAT     H2 9749   4.111   2.540   3.978 -0.2247 -1.5765 -0.4280
 3180WAT      O 9750   2.926   3.491   5.401  0.1251 -0.0587  0.4907
 3180WAT     H1 9751   2.905   3.584   5.407 -1.0384 -0.1810 -1.0215
 3180WAT     H2 9752   2.866   3.449   5.461  0.2728  0.1207  0.7653
 3181WAT      O 9753   4.657   3.794   4.255  0.0402 -0.1081  0.1735
 3181WAT     H1 9754   4.616   3.842   4.327  1.8477 -0.0430  1.2491
 3181WAT     H2 9755   4.671   3.706   4.290 -1.3910 -0.8500 -1.0537
 3182WAT      O 9756   2.742   2.806   5.716 -0.3050  0.2615 -0.1845
 3182WAT     H1 9757   2.715   2.890   5.753  1.7817  0.2610  1.5077
 3182WAT     H2 9758   2.837   2.803   5.727 -0.1612 -1.8061 -1.3496
 3183WAT      O 9759   4.797   2.080   4.923  0.2070  0.3167  0.4361
 3183WAT     H1 9760   4.730   2.074   4.991  0.3419 -0.2058  0.5226
 3183WAT     H2 9761   4.817   1.990   4.901  1.5112  0.4527  1.0200
 3184WAT      O 9762   1.668   3.046   5.181  0.0855 -0.1529 -0.1814
 3184WAT     H1 9763   1.600   3.105   5.212 -1.6450 -1.6265 -0.9649
 3184WAT     H2 9764   1.696   2.998   5.259  1.0317  1.1947  0.3345
 3185WAT      O 9765   2.761   2.648   5.154  0.0002  0.2314  0.2717
 3185WAT     H1 9766   2.853   2.664   5.175  0.3076 -2.0661  1.0642
 3185WAT     H2 9767   2.764   2.579   5.087 -1.1222  0.1364  0.3076
 3186WAT      O 9768   0.158   2.861   2.819 -0.4712 -0.3094  0.2356
 3186WAT     H1 9769   0.103   2.794   2.779 -0.2011  0.9550 -2.4528
 3186WAT     H2 9770   0.237   2.815   2.847 -0.0963 -1.0908 -1.9498
 3187WAT      O 9771   4.026   2.142   5.009 -0.5143  0.0554  0.0450
 3187WAT     H1 9772   3.993   2.136   4.920  0.2783  0.2607 -0.2752
 3187WAT     H2 9773   4.039   2.051   5.036 -2.0761 -0.0703  0.4829
 3188WAT      O 9774   4.367   4.639   1.481 -0.7337 -0.2622  0.6910
 3188WAT     H1 9775   4.321   4.708   1.434  1.6418 -0.1302 -1.6527
 3188WAT     H2 9776   4.297   4.579   1.509 -2.8116  2.6458  2.3040
 3189WAT      O 9777   4.928   3.724   0.374  0.0072 -0.9567  0.2456
 3189WAT     H1 9778   5.018   3.740   0.346 -0.2151 -1.3184 -0.7204
 3189WAT     H2 9779   4.874   3.773   0.312 -0.4535 -0.4872  1.0109
 3190WAT      O 9780   3.763   1.433   2.049  0.2623  0.6813  0.1017
 3190WAT     H1 9781   3.818   1.377   1.994  0.2834 -0.7516  1.5223
 3190WAT     H2 9782   3.674   1.404   2.032  0.0220  1.9874 -1.0628
 3191WAT      O 9783   2.583   5.455   3.794  0.1387  0.1236 -0.5397
 3191WAT     H1 9784   2.574   5.419   3.706 -1.1756 -0.4478 -0.2102
 3191WAT     H2 9785   2.498   5.496   3.811 -0.5636 -1.8705  1.3306
 3192WAT      O 9786   1.396   3.081   5.277  0.2029  0.1481 -0.1033
 3192WAT     H1 9787   1.361   2.996   5.304  1.5597 -0.2850  0.3835
 3192WAT     H2 9788   1.357   3.097   5.192 -1.1693 -0.2938  0.4073
 3193WAT      O 9789   1.664   1.427   4.957  0.4236 -0.1911  0.6359
 3193WAT     H1 9790   1.627   1.500   5.006 -0.9923 -1.0203  0.8626
 3193WAT     H2 9791   1.687   1.362   5.024  1.2897 -0.1350  0.4085
 3194WAT      O 9792   4.403   0.218   3.931 -0.1655  0.2412  0.2620
 3194WAT     H1 9793   4.381   0.306   3.901 -1.5323  0.4278  1.6802
 3194WAT     H2 9794   4.410   0.166   3.851 -0.1449  1.4532 -0.5511
 3195WAT      O 9795   0.234   2.057   4.682 -0.0261 -0.1916 -0.1426
 3195WAT     H1 9796   0.169   2.032   4.616 -1.9746  1.5974  0.9655
 3195WAT     H2 9797   0.201   2.019   4.763  0.9953 -0.2735  0.2409
 3196WAT      O 9798   4.896   4.759   2.989  0.0409 -0.2792  0.6856
 3196WAT     H1 9799   4.919   4.805   2.908 -1.6461  1.1635  0.9834
 3196WAT     H2 9800   4.833   4.693   2.961 -1.8265  1.2924  0.9668
 3197WAT      O 9801   0.806   3.376   0.371 -0.3498  0.2300  0.0598
 3197WAT     H1 9802   0.839   3.464   0.352  2.4540 -0.3879  1.5614
 3197WAT     H2 9803   0.845   3.321   0.303  0.1484 -0.2363  0.7136
 3198WAT      O 9804   2.593   1.533   0.499 -0.4498 -0.4251  0.5324
 3198WAT     H1 9805   2.600   1.442   0.527  0.5608 -0.7442 -0.6546
 3198WAT     H2 9806   2.575   1.528   0.405  0.0815  0.5927  0.3601
 3199WAT      O 9807   0.299   2.235   2.513 -0.2092 -0.2462  0.4235
 3199WAT     H1 9808   0.298   2.223   2.418  0.9348 -0.3301  0.4116
 3199WAT     H2 9809   0.211   2.210   2.541 -0.1308 -1.5938 -0.4436
 3200WAT      O 9810   1.765   3.999   5.705  0.2955  0.2890 -0.1364
 3200WAT     H1 9811   1.855   3.967   5.710  0.6298  1.3750  2.2816
 3200WAT     H2 9812   1.712   3.929   5.744  0.0478 -0.3970 -1.6599
 3201WAT      O 9813   2.432   4.169   2.194 -0.5596  0.2267 -0.1304
 3201WAT     H1 9814   2.364   4.167   2.128 -2.5020  1.3288  1.6973
 3201WAT     H2 9815   2.386   4.151   2.276  2.1657 -4.3669  0.7659
 3202WAT      O 9816   1.887   3.949   2.332 -0.1937  0.3018 -0.2290
 3202WAT     H1 9817   1.959   3.941   2.395 -1.0153  1.2212  0.8667
 3202WAT     H2 9818   1.930   3.941   2.246  0.9925 -0.6663  0.4139
 3203WAT      O 9819   0.435   2.404   0.210  0.0712  0.0513 -0.1398
 3203WAT     H1 9820   0.427   2.309   0.219  0.1066 -0.0046 -0.6771
 3203WAT     H2 9821   0.449   2.418   0.117  1.4600  0.4848  0.1103
 3204WAT      O 9822   4.798   4.119   0.841 -0.3756 -0.3234 -0.5833
 3204WAT     H1 9823   4.891   4.100   0.831 -0.0106 -0.3630  2.0124
 3204WAT     H2 9824   4.795   4.190   0.905 -2.1397 -1.0931  0.2636
 3205WAT      O 9825   1.752   1.023   0.467  0.5075 -0.0274 -0.3540
 3205WAT     H1 9826   1.769   0.938   0.509  2.4424  0.5081  0.0284
 3205WAT     H2 9827   1.759   1.086   0.539  0.3664  0.5802 -0.8688
 3206WAT      O 9828   4.731   1.957   4.604  0.1568 -0.2103  0.0186
 3206WAT     H1 9829   4.662   1.975   4.669  2.0114 -0.3312  2.1481
 3206WAT     H2 9830   4.742   1.862   4.607 -0.6620 -0.3815 -1.5404
 3207WAT      O 9831   4.059   2.844   4.883  0.0199  0.0321 -0.0712
 3207WAT     H1 9832   4.114   2.879   4.952  0.8752  0.0827 -0.7573
 3207WAT     H2 9833   4.034   2.920   4.831 -0.5164 -0.0210  0.1014
 3208WAT      O 9834   4.579   3.102   1.324  0.0061  0.2218  0.0012
 3208WAT     H1 9835   4.521   3.115   1.249 -2.7314  0.5182  2.0229
 3208WAT     H2 9836   4.553   3.170   1.387 -0.9839 -2.6349  2.9713
 3209WAT      O 9837   0.721   4.089   4.740  0.4105 -0.2483 -0.1399
 3209WAT     H1 9838   0.798   4.109   4.686  1.5481  1.4893  1.9680
 3209WAT     H2 9839   0.741   4.126   4.825 -2.6264 -0.0956  0.6294
 3210WAT      O 9840   4.305   2.639   4.610  0.2011 -0.2220  0.2059
 3210WAT     H1 9841   4.311   2.590   4.692 -1.3162  0.7680  0.9607
 3210WAT     H2 9842   4.307   2.731   4.637  2.5344  0.2057 -1.1384
 3211WAT      O 9843   0.422   1.143   2.338  0.0751  0.8479 -0.2427
 3211WAT     H1 9844   0.403   1.159   2.430 -0.5750 -2.1744  0.2432
 3211WAT     H2 9845   0.516   1.123   2.336 -0.1412 -0.2303 -0.0238
 3212WAT      O 9846   2.568   2.662   3.983  0.2550 -0.1913  0.9764
 3212WAT     H1 9847   2.611   2.598   4.039 -0.8952 -0.2560  1.8172
 3212WAT     H2 9848   2.619   2.743   3.996  0.2013 -0.2920  1.8704
 3213WAT      O 9849   3.609   2.794   0.984  0.6734  0.1561 -0.0018
 3213WAT     H1 9850   3.629   2.867   0.926 -0.5960 -0.4225 -1.2215
 3213WAT     H2 9851   3.523   2.814   1.021  0.6705 -0.3407  0.2835
 3214WAT      O 9852   4.507   0.980   2.022  0.2387  0.6036 -0.2353
 3214WAT     H1 9853   4.534   0.891   2.045  0.0271  0.8281  0.9657
 3214WAT     H2 9854   4.532   1.033   2.098  1.2396  1.7512 -1.3327
 3215WAT      O 9855   2.671   2.323   3.454 -0.0013  0.0974  0.5319
 3215WAT     H1 9856   2.633   2.386   3.393  2.5873  0.8336 -0.4825
 3215WAT     H2 9857   2.719   2.377   3.517 -0.8505 -0.7533  1.9442
 3216WAT      O 9858   4.281   3.635   2.424 -0.3570  0.3632 -0.1035
 3216WAT     H1 9859   4.291   3.556   2.372 -2.1235  1.3511 -2.0878
 3216WAT     H2 9860   4.357   3.688   2.401  1.6873 -1.2123  2.3915
 3217WAT      O 9861   1.579   3.087   4.154 -0.1900  0.5903  0.3976
 3217WAT     H1 9862   1.550   3.037   4.230  0.7149 -0.5151  0.0258
 3217WAT     H2 9863   1.506   3.080   4.092 -0.1330 -0.1590  0.4054
 3218WAT      O 9864   1.259   4.136   4.759  0.3400 -0.1353 -0.3002
 3218WAT     H1 9865   1.245   4.193   4.683  0.7825  0.0826 -0.2254
 3218WAT     H2 9866   1.344   4.094   4.742  0.6543  0.2452  0.2720
 3219WAT      O 9867   1.244   1.114   2.982 -0.5258 -0.3847  0.0703
 3219WAT     H1 9868   1.303   1.072   3.045 -0.4335 -1.8277 -0.9452
 3219WAT     H2 9869   1.183   1.045   2.956  0.7902 -0.4991 -3.0607
 3220WAT      O 9870   4.055   3.379   1.634 -0.7584 -0.4639 -0.4540
 3220WAT     H1 9871   4.112   3.424   1.697 -1.7761  0.7650 -0.3688
 3220WAT     H2 9872   4.096   3.397   1.549 -0.2273 -0.8283 -0.2834
 3221WAT      O 9873  -0.003   4.213   3.712 -0.0139 -0.3176  0.1497
 3221WAT     H1 9874   0.079   4.167   3.731  0.1918 -0.3708 -0.7795
 3221WAT     H2 9875  -0.034   4.173   3.630 -2.2170 -1.9334  1.6539
 3222WAT      O 9876   3.715   2.097   5.336  0.2644  0.1530  0.2311
 3222WAT     H1 9877   3.731   2.077   5.428  0.6388 -0.2301  0.0892
 3222WAT     H2 9878   3.653   2.030   5.307  0.7925 -0.2425 -0.0044
 3223WAT      O 9879   1.692   3.059   1.872 -0.0594  0.2124 -0.1263
 3223WAT     H1 9880   1.774   3.014   1.853  0.0189  0.5098 -0.4960
 3223WAT     H2 9881   1.637   3.041   1.795 -0.7384 -0.9002  0.5920
 3224WAT      O 9882   4.129   4.319   3.038 -0.4755 -0.6113  0.3326
 3224WAT     H1 9883   4.206   4.264   3.023 -0.4541 -0.5920  0.3728
 3224WAT     H2 9884   4.057   4.268   3.001 -0.1394  0.3782 -1.8436
 3225WAT      O 9885   3.290   0.820   1.606  0.0397  0.1307  0.1233
 3225WAT     H1 9886   3.228   0.800   1.536  0.4799  0.2028 -0.2923
 3225WAT     H2 9887   3.365   0.763   1.588 -0.1510 -0.4146  0.9804
 3226WAT      O 9888   1.078   2.109   2.579 -0.0381 -0.3991  0.4719
 3226WAT     H1 9889   0.998   2.062   2.553  0.0724 -0.3933  0.1180
 3226WAT     H2 9890   1.143   2.039   2.590 -0.5607 -0.6079  2.6111
 3227WAT      O 9891   4.959   2.696   3.462  0.3767  0.1701  0.0637
 3227WAT     H1 9892   4.888   2.660   3.409  0.8481 -1.2684  0.3624
 3227WAT     H2 9893   5.024   2.726   3.399  0.0710  0.2775 -0.2007
 3228WAT      O 9894   4.420   4.738   3.785 -0.1116  0.6324  0.1716
 3228WAT     H1 9895   4.335   4.718   3.824  0.2830 -0.9267  0.3225
 3228WAT     H2 9896   4.478   4.750   3.861  0.1129  0.1396  0.0849
 3229WAT      O 9897   2.538   4.073   4.104  0.0039 -0.1632  0.0261
 3229WAT     H1 9898   2.542   4.095   4.197  1.1604  0.9591 -0.2595
 3229WAT     H2 9899   2.630   4.074   4.076 -0.2615 -1.2482 -0.9749
 3230WAT      O 9900   0.160   4.188   1.764  0.0552  0.6250 -0.5350
 3230WAT     H1 9901   0.211   4.123   1.715 -0.7842  1.3312 -2.4581
 3230WAT     H2 9902   0.226   4.248   1.799  0.6637  0.5407 -1.4816
 3231WAT      O 9903   2.128   2.443   5.027  0.2266 -0.3701  0.4552
 3231WAT     H1 9904   2.072   2.366   5.022  0.2548 -0.3268 -1.2678
 3231WAT     H2 9905   2.091   2.496   5.098 -1.9406 -0.3490 -0.6054
 3232WAT      O 9906   3.011   2.749   5.169  0.4269  0.0763  0.0359
 3232WAT     H1 9907   3.064   2.695   5.228 -0.6399 -0.3735  0.6153
 3232WAT     H2 9908   3.071   2.814   5.135  1.9922 -1.9509 -1.3357
 3233WAT      O 9909   1.599   2.337   5.684 -0.3986 -0.1144  0.3752
 3233WAT     H1 9910   1.637   2.312   5.600  0.7087  2.2986  0.0723
 3233WAT     H2 9911   1.654   2.294   5.750  0.0628 -0.2770 -0.1167
 3234WAT      O 9912   0.243   1.343   0.559  0.1976 -0.1919 -0.1395
 3234WAT     H1 9913   0.185   1.361   0.633 -0.5005 -0.3053 -0.6530
 3234WAT     H2 9914   0.297   1.270   0.588 -0.7024 -0.8433 -0.0783
 3235WAT      O 9915   0.201   2.565   3.959 -0.5265  0.0776 -0.0044
 3235WAT     H1 9916   0.203   2.470   3.958  1.2501  0.0771  0.9863
 3235WAT     H2 9917   0.217   2.590   3.868  0.1291 -0.5661 -0.0759
 3236WAT      O 9918   4.772   3.894   0.228  0.1304  0.1573  0.3248
 3236WAT     H1 9919   4.700   3.888   0.290  0.6993 -2.9465  0.8438
 3236WAT     H2 9920   4.816   3.977   0.250 -1.3903  0.5471  2.0913
 3237WAT      O 9921   2.388   2.312   3.615 -0.1886  0.1452  0.1963
 3237WAT     H1 9922   2.409   2.403   3.638 -0.9357  0.0148  1.4868
 3237WAT     H2 9923   2.466   2.281   3.569  1.0878  0.7078  1.8627
 3238WAT      O 9924   0.534   2.102   3.200  0.4693  0.6636 -0.0413
 3238WAT     H1 9925   0.611   2.136   3.245 -0.2905  1.3745  0.7538
 3238WAT     H2 9926   0.496   2.039   3.262 -1.5201  2.8500  1.1424
 3239WAT      O 9927   0.633   0.067   3.133 -0.3315  0.2860  0.9388
 3239WAT     H1 9928   0.723   0.046   3.108 -0.5642  0.1152  0.2141
 3239WAT     H2 9929   0.588  -0.018   3.132 -0.9211  0.5697 -0.5130
 3240WAT      O 9930   0.970   1.629   2.143  0.2461  0.6451  0.4541
 3240WAT     H1 9931   0.916   1.550   2.144  1.3072 -0.0854  0.7595
 3240WAT     H2 9932   0.930   1.685   2.209 -0.4054  0.2985  0.3662
 3241WAT      O 9933   1.112   4.471   3.921  0.6665  0.4565 -0.0925
 3241WAT     H1 9934   1.069   4.519   3.850  1.3544  2.3044  0.6576
 3241WAT     H2 9935   1.181   4.421   3.877 -1.2611 -1.4191 -1.1243
 3242WAT      O 9936   4.610   0.166   4.118 -0.9604  0.3155  0.6336
 3242WAT     H1 9937   4.556   0.191   4.043 -0.3966  1.2916  0.5326
 3242WAT     H2 9938   4.680   0.231   4.119  0.4704 -1.1709  0.4942
 3243WAT      O 9939   0.852   1.928   2.581 -0.4982 -0.7443 -0.4961
 3243WAT     H1 9940   0.881   1.852   2.632  3.3632  0.5243 -0.4760
 3243WAT     H2 9941   0.808   1.984   2.645  0.3225 -1.1353  0.4307
 3244WAT      O 9942   1.671   0.989   1.361 -0.4236 -0.0943 -0.0188
 3244WAT     H1 9943   1.729   1.054   1.401  0.4759 -0.2993 -0.9420
 3244WAT     H2 9944   1.730   0.918   1.334 -1.2664 -0.8514  0.0729
 3245WAT      O 9945   4.516   2.808   3.512 -0.0664 -0.0434 -0.4587
 3245WAT     H1 9946   4.505   2.902   3.503 -0.9105  0.0495  1.1608
 3245WAT     H2 9947   4.574   2.798   3.587  0.3813 -0.8148 -0.8945
 3246WAT      O 9948   2.821   5.328   3.971 -0.1267  0.1244 -0.4329
 3246WAT     H1 9949   2.798   5.355   3.882 -1.9935 -0.3689 -0.1400
 3246WAT     H2 9950   2.804   5.406   4.024  0.5943  0.2935 -0.4448
 3247WAT      O 9951   2.439   2.316   4.420  0.0456 -0.7393 -0.4035
 3247WAT     H1 9952   2.530   2.288   4.417 -0.0100 -0.8502 -2.1198
 3247WAT     H2 9953   2.438   2.389   4.482  0.7111 -2.6119  1.9515
 3248WAT      O 9954   1.676   0.914   3.856 -0.1357 -0.0499 -0.7790
 3248WAT     H1 9955   1.707   1.003   3.843  0.8208 -0.4485 -1.3726
 3248WAT     H2 9956   1.724   0.862   3.791  0.2530 -1.1877  0.3736
 3249WAT      O 9957   4.732   2.271   4.075 -0.1968 -0.1749  0.1743
 3249WAT     H1 9958   4.732   2.265   4.171  1.2501 -2.5748  0.1199
 3249WAT     H2 9959   4.773   2.355   4.056  0.3325 -0.0555  1.6883
 3250WAT      O 9960   1.517   2.689   4.201  0.1784  0.0042 -0.3433
 3250WAT     H1 9961   1.595   2.671   4.149  0.0454 -0.8346 -0.2520
 3250WAT     H2 9962   1.449   2.706   4.136  0.2950  0.1700 -0.4259
 3251WAT      O 9963   2.900   0.281   1.415 -0.0492  0.5336  0.3962
 3251WAT     H1 9964   2.954   0.343   1.366 -0.5833  1.3312  0.7927
 3251WAT     H2 9965   2.901   0.314   1.505 -0.5574  0.1123  0.5644
 3252WAT      O 9966   1.890   2.219   2.810  1.3338  0.8227  0.2197
 3252WAT     H1 9967   1.887   2.292   2.747 -0.1644  1.2957  0.7747
 3252WAT     H2 9968   1.827   2.155   2.775 -1.2124  2.0290  2.2209
 3253WAT      O 9969   0.548   4.452   1.999 -0.3046  0.6072 -0.5355
 3253WAT     H1 9970   0.584   4.540   2.002 -2.0905  1.3712  1.0790
 3253WAT     H2 9971   0.558   4.419   2.089  0.0337 -0.7127 -1.0382
 3254WAT      O 9972   0.379   1.387   4.040 -0.1372 -0.2069  0.2367
 3254WAT     H1 9973   0.336   1.409   4.123  1.0712  0.0868  0.8116
 3254WAT     H2 9974   0.336   1.307   4.011 -1.9108  0.7362  0.1456
 3255WAT      O 9975   1.393   1.652   0.636  0.6211  0.0878 -0.0329
 3255WAT     H1 9976   1.333   1.725   0.650 -0.2874 -0.7326  0.5127
 3255WAT     H2 9977   1.390   1.603   0.718 -0.5750 -1.8055 -1.1310
 3256WAT      O 9978   4.422   4.407   4.305 -0.3435  0.0988 -0.1450
 3256WAT     H1 9979   4.504   4.445   4.337 -0.4961  1.1521 -0.9517
 3256WAT     H2 9980   4.450   4.344   4.238 -0.1074 -1.0255  0.9753
 3257WAT      O 9981   1.620   3.631   4.278 -0.1539 -0.4864 -0.0536
 3257WAT     H1 9982   1.626   3.599   4.188  0.8707 -0.8638  0.1414
 3257WAT     H2 9983   1.707   3.617   4.315 -0.9453 -1.7091  1.4688
 3258WAT      O 9984   2.649   3.778   3.775 -0.5955 -0.5134  0.3415
 3258WAT     H1 9985   2.684   3.787   3.687 -1.7312 -0.3636 -0.1119
 3258WAT     H2 9986   2.726   3.771   3.831  0.1368 -0.8774 -0.6866
 3259WAT      O 9987   2.618   3.849   4.449 -0.2919 -0.1877  0.1673
 3259WAT     H1 9988   2.596   3.757   4.437 -1.0492  0.1648 -1.3653
 3259WAT     H2 9989   2.691   3.848   4.511 -1.3567 -1.6900  1.4777
 3260WAT      O 9990   4.861   4.141   3.983 -0.4842  1.0010 -0.9290
 3260WAT     H1 9991   4.853   4.049   3.960  0.1743  0.6877  0.0588
 3260WAT     H2 9992   4.894   4.183   3.903 -0.2612  0.2923 -1.2131
 3261WAT      O 9993   4.687   3.475   1.738  0.2441 -0.3907 -0.4628
 3261WAT     H1 9994   4.696   3.568   1.755  0.2144 -0.0367 -2.1821
 3261WAT     H2 9995   4.714   3.433   1.819  1.1261  1.0896  0.0466
 3262WAT      O 9996   1.690   3.703   0.364  0.4972 -0.0586  0.3487
 3262WAT     H1 9997   1.641   3.632   0.325  1.0057 -0.2658  0.0734
 3262WAT     H2 9998   1.722   3.754   0.290 -0.3127  0.7665  0.5567
 3263WAT      O 9999   1.192   4.120   3.990  0.1534  0.0870  0.1408
 3263WAT     H110000   1.175   4.189   4.054 -0.3079  0.4339 -0.3524
 3263WAT     H210001   1.263   4.155   3.936  1.9624 -1.0177  1.6771
 3264WAT      O10002   4.064   2.715   1.648 -0.4952 -0.5439  0.1616
 3264WAT     H110003   3.986   2.731   1.595 -0.4829 -0.2606  0.2227
 3264WAT     H210004   4.137   2.738   1.591 -0.4073 -1.7610 -0.2287
 3265WAT      O10005   0.873   2.165   4.830 -0.0275  0.4598  0.1332
 3265WAT     H110006   0.959   2.147   4.869 -0.7160  0.0806  1.5443
 3265WAT     H210007   0.876   2.257   4.804  1.0245  0.2731 -0.4531
 3266WAT      O10008   4.833   1.806   4.945 -0.1085  0.8957  0.6461
 3266WAT     H110009   4.872   1.718   4.940 -0.8086  0.6103 -0.0378
 3266WAT     H210010   4.754   1.794   4.997  0.0898  1.2344  1.0258
 3267WAT      O10011   0.828   0.294   1.467  0.0714  0.1349  0.3878
 3267WAT     H110012   0.910   0.309   1.420  0.2751  1.0355  0.9969
 3267WAT     H210013   0.837   0.207   1.505  1.8114  1.1209  2.4681
 3268WAT      O10014   2.827   1.730   5.479 -0.0583  0.5346 -0.3021
 3268WAT     H110015   2.817   1.710   5.572  2.0248 -0.9553 -0.3337
 3268WAT     H210016   2.847   1.824   5.477 -0.5742  0.6812  0.7038
 3269WAT      O10017   0.050   1.247   0.809  0.4852 -0.4725  0.1595
 3269WAT     H110018   0.026   1.339   0.825  1.1618 -0.1393 -0.6614
 3269WAT     H210019  -0.032   1.199   0.820 -0.1276  0.3818 -0.5098
 3270WAT      O10020   0.604   0.614   2.969 -0.6147  0.4142 -0.1239
 3270WAT     H110021   0.530   0.674   2.962  0.4729  1.7454 -0.7911
 3270WAT     H210022   0.632   0.620   3.060  0.5144  2.2629 -0.5494
 3271WAT      O10023   2.069   2.329   0.719 -0.5787  0.3802 -0.0670
 3271WAT     H110024   1.990   2.275   0.727 -1.5422  1.8460  0.6830
 3271WAT     H210025   2.107   2.328   0.807 -0.5956  0.8976 -0.0534
 3272WAT      O10026   0.468   1.897   0.088  0.3914  0.9018 -0.1358
 3272WAT     H110027   0.413   1.822   0.109  2.7531  0.1162  4.4532
 3272WAT     H210028   0.427   1.970   0.134  0.6951  1.3393 -0.5580
 3273WAT      O10029   4.826   4.866   3.251 -0.1153 -0.5512  0.2011
 3273WAT     H110030   4.825   4.962   3.240 -1.4112 -0.4237  1.1518
 3273WAT     H210031   4.856   4.833   3.166 -1.8599  0.6265 -0.9529
 3274WAT      O10032   1.100   1.500   4.667 -0.0224 -0.1377 -0.5097
 3274WAT     H110033   1.061   1.565   4.609 -0.0331  0.4935  0.1795
 3274WAT     H210034   1.181   1.540   4.698  1.4880 -1.6240 -2.2865
 3275WAT      O10035   3.191   3.842   4.881 -0.6280  0.1030 -0.2239
 3275WAT     H110036   3.265   3.789   4.912 -0.8505  0.6619  1.3076
 3275WAT     H210037   3.115   3.785   4.890 -0.6993  0.2815  0.3091
 3276WAT      O10038   0.075   3.778   0.046 -0.1463 -0.0792  0.8352
 3276WAT     H110039   0.073   3.701  -0.010 -0.2057 -1.0692  2.1525
 3276WAT     H210040  -0.017   3.795   0.068 -0.0379 -0.5112  1.6780
 3277WAT      O10041   1.357   0.888   3.401  0.1203 -0.3545  0.0431
 3277WAT     H110042   1.355   0.800   3.437 -0.2850 -0.3880 -0.0609
 3277WAT     H210043   1.272   0.900   3.360 -0.3186  0.5487  1.1593
 3278WAT      O10044   0.611   3.200   0.094 -0.1310  0.1136  0.0739
 3278WAT     H110045   0.688   3.254   0.115  0.4722 -0.7052  0.0151
 3278WAT     H210046   0.537   3.250   0.127  0.5196  0.3964  1.1591
 3279WAT      O10047   4.409   2.583   0.513 -0.5456  0.6821 -0.4022
 3279WAT     H110048   4.327   2.567   0.467 -1.7142  0.6703  1.5429
 3279WAT     H210049   4.384   2.633   0.591  1.2337  0.3413  0.4540
 3280WAT      O10050   0.405   0.898   0.864 -0.5420  0.4245 -0.1453
 3280WAT     H110051   0.344   0.960   0.903 -0.8674 -0.5732  0.9866
 3280WAT     H210052   0.382   0.813   0.903  0.2953 -0.3089 -1.1709
 3281WAT      O10053   0.853   2.435   4.723 -0.4244 -0.3763  0.4920
 3281WAT     H110054   0.758   2.441   4.727 -0.4872  1.4075 -1.8069
 3281WAT     H210055   0.884   2.512   4.771 -0.1413 -0.6523  0.7579
 3282WAT      O10056   4.881   3.499   4.057  0.0102 -0.2900 -0.6824
 3282WAT     H110057   4.809   3.485   4.118  2.1894 -1.8265  1.7936
 3282WAT     H210058   4.877   3.423   3.998 -1.5323  0.7037 -1.9401
 3283WAT      O10059   4.324   2.287   0.084  0.0202 -0.7545  0.2772
 3283WAT     H110060   4.394   2.329   0.133 -0.7798  0.8846  0.0842
 3283WAT     H210061   4.369   2.233   0.019  1.1469  0.8859 -0.3830
 3284WAT      O10062   3.143   4.101   4.889  0.6364  0.2316  0.5190
 3284WAT     H110063   3.184   4.015   4.879  0.6342  0.0947  1.6073
 3284WAT     H210064   3.211   4.163   4.862  0.4341 -0.1043 -0.8836
 3285WAT      O10065   4.781   1.241   4.293 -0.3010  0.5955 -0.1960
 3285WAT     H110066   4.763   1.147   4.297 -0.8023  0.7015  3.1033
 3285WAT     H210067   4.873   1.248   4.315 -0.9835  0.9119  3.0384
 3286WAT      O10068   2.184   2.659   4.789 -0.1933 -0.6030  0.3412
 3286WAT     H110069   2.127   2.734   4.774 -2.1473 -1.9129  0.8839
 3286WAT     H210070   2.157   2.624   4.874  0.2786 -2.2394 -0.1365
 3287WAT      O10071   4.929   2.902   0.325  0.9476  0.7214 -0.0080
 3287WAT     H110072   4.996   2.850   0.279 -0.5734 -1.1151 -0.2918
 3287WAT     H210073   4.848   2.882   0.278 -0.3232  0.4149  2.1968
 3288WAT      O10074   2.510   3.164   2.837 -0.2813  0.1451 -0.6522
 3288WAT     H110075   2.554   3.242   2.803  1.0928 -0.5447 -0.5468
 3288WAT     H210076   2.478   3.190   2.923  0.5835  0.4804 -0.4145
 3289WAT      O10077   1.884   1.839   4.601  0.3104  0.3741 -0.1557
 3289WAT     H110078   1.950   1.905   4.622 -0.5448  1.4060 -0.6207
 3289WAT     H210079   1.878   1.840   4.505 -1.5368  1.5116 -0.0805
 3290WAT      O10080   0.147   4.055   4.903  0.3075 -0.4861  0.1403
 3290WAT     H110081   0.063   4.012   4.886  0.4223 -0.5638 -0.2231
 3290WAT     H210082   0.186   4.005   4.975 -0.9041  0.8066  1.7872
 3291WAT      O10083   1.572   2.065   4.747 -0.2809 -0.2805 -0.1242
 3291WAT     H110084   1.528   2.121   4.810 -0.1266  0.3354 -0.5525
 3291WAT     H210085   1.605   1.991   4.798 -0.3846  0.0800  0.4651
 3292WAT      O10086   2.874   2.528   3.111 -0.6632 -0.4529  0.2097
 3292WAT     H110087   2.944   2.573   3.066  0.1243 -0.0508  1.7765
 3292WAT     H210088   2.796   2.582   3.096 -0.3246 -0.1015 -0.2807
 3293WAT      O10089   1.111   4.988   4.096 -0.8650  0.1380  0.0115
 3293WAT     H110090   1.036   4.934   4.119 -1.2875  1.4075  1.8068
 3293WAT     H210091   1.181   4.958   4.155 -0.4068  0.0142 -0.5776
 3294WAT      O10092   0.505   4.220   5.291  0.1100  0.0423 -0.4846
 3294WAT     H110093   0.504   4.139   5.239  0.4411 -0.7581  0.6974
 3294WAT     H210094   0.415   4.231   5.319  0.1123 -0.0721 -0.4290
 3295WAT      O10095   1.360   3.354   0.685 -0.2297 -0.9675 -0.7466
 3295WAT     H110096   1.266   3.356   0.703 -0.0288 -0.7361  0.3668
 3295WAT     H210097   1.371   3.410   0.609 -0.9974 -0.9972 -0.8853
 3296WAT      O10098   1.599   4.300   3.549 -0.3212 -0.0621 -0.1743
 3296WAT     H110099   1.552   4.274   3.470  0.0790  1.0838 -0.8168
 3296WAT     H210100   1.602   4.396   3.545 -0.7004  0.0596  1.4691
 3297WAT      O10101   3.808   5.604   1.520  0.3624  0.1057  0.2724
 3297WAT     H110102   3.738   5.651   1.474  0.8187 -0.2321 -0.8230
 3297WAT     H210103   3.767   5.522   1.547  0.1552  0.1951  0.2336
 3298WAT      O10104   4.105   3.217   4.988 -0.6662 -0.3913  0.3896
 3298WAT     H110105   4.020   3.196   5.026 -0.5447 -0.2231  0.7510
 3298WAT     H210106   4.129   3.301   5.027 -0.3404 -0.4309  0.2768
 3299WAT      O10107   1.165   4.049   0.162 -0.3781  0.1738 -0.0403
 3299WAT     H110108   1.260   4.047   0.151 -0.5179  0.5699 -1.7129
 3299WAT     H210109   1.131   4.020   0.077 -1.7766 -2.1022  1.2014
 3300WAT      O10110   1.101   2.196   4.957  0.1413  0.4624  0.1655
 3300WAT     H110111   1.156   2.272   4.973  0.9415 -0.1129  0.2216
 3300WAT     H210112   1.143   2.150   4.884  1.2983 -1.4112  1.8948
 3301WAT      O10113   4.088   4.091   2.304 -0.4829  0.2407  0.0026
 3301WAT     H110114   4.002   4.122   2.331 -1.5408 -0.2043 -2.5573
 3301WAT     H210115   4.070   4.009   2.257  1.3690 -0.0156 -0.3206
 3302WAT      O10116   3.890   2.348   5.465 -0.3262  0.3860 -0.2115
 3302WAT     H110117   3.832   2.276   5.489  3.4239 -3.0197 -0.5198
 3302WAT     H210118   3.885   2.352   5.369  1.5302 -1.5040 -0.4395
 3303WAT      O10119   2.385   2.100   4.531 -0.4808  0.2594  0.1937
 3303WAT     H110120   2.473   2.064   4.526 -0.6722 -0.0922 -1.4046
 3303WAT     H210121   2.393   2.189   4.497 -0.7402  0.1972 -0.0416
 3304WAT      O10122   2.939   5.606   1.847 -0.4972 -0.1323  0.2674
 3304WAT     H110123   3.005   5.662   1.805 -2.8923  2.5000 -0.2990
 3304WAT     H210124   2.964   5.606   1.939 -0.1130  1.5000  0.1994
 3305WAT      O10125   1.285   4.221   5.022  0.5339  0.1323  0.7651
 3305WAT     H110126   1.357   4.174   5.063  1.6639  1.3107  0.1985
 3305WAT     H210127   1.263   4.170   4.944 -0.6701 -1.3404  2.0030
 3306WAT      O10128   0.132   3.569   5.693 -0.0550 -0.3652  0.3158
 3306WAT     H110129   0.213   3.547   5.738 -0.9780 -1.2969  1.5957
 3306WAT     H210130   0.143   3.531   5.605  0.8738 -0.4798  0.4728
 3307WAT      O10131   1.228   1.926   4.149  0.1148  0.0875 -0.0644
 3307WAT     H110132   1.247   1.882   4.232 -0.9868  0.3859  0.3604
 3307WAT     H210133   1.134   1.943   4.152  0.1322  0.4557 -1.2095
 3308WAT      O10134   0.538   1.927   4.133  0.2366  0.0896 -0.4658
 3308WAT     H110135   0.561   1.942   4.224  1.1703 -0.3560 -0.6080
 3308WAT     H210136   0.503   1.837   4.131 -2.6006  1.0863 -0.0883
 3309WAT      O10137   0.670   3.705   1.919 -0.9376  0.3100 -0.3104
 3309WAT     H110138   0.584   3.728   1.885 -1.1683 -0.5390 -0.3415
 3309WAT     H210139   0.651   3.647   1.994 -0.3983 -0.0973 -0.4775
 3310WAT      O10140   1.137   1.815   5.747 -0.3470 -0.0030  0.1150
 3310WAT     H110141   1.201   1.780   5.808 -0.7020  0.3196  0.6829
 3310WAT     H210142   1.061   1.835   5.801 -0.2209  1.4715 -0.2092
 3311WAT      O10143   2.277   3.806   0.926 -0.2884 -0.0810 -0.6590
 3311WAT     H110144   2.190   3.798   0.887  0.4044 -1.4349 -2.0266
 3311WAT     H210145   2.298   3.718   0.956 -0.3488  0.6874  1.9530
 3312WAT      O10146   0.072   4.567   4.410 -0.3096  0.0138 -0.0752
 3312WAT     H110147  -0.016   4.588   4.377 -0.0826 -0.0603 -0.7474
 3312WAT     H210148   0.089   4.479   4.376  0.0991  0.1061 -0.1064
 3313WAT      O10149   3.551   2.603   0.325  0.5276  0.1601  0.7028
 3313WAT     H110150   3.568   2.556   0.406  0.1535 -0.0455  0.6631
 3313WAT     H210151   3.521   2.689   0.353  2.4841  0.8718  0.7822
 3314WAT      O10152   0.972   4.141   4.636  0.1893  0.0028 -0.0234
 3314WAT     H110153   1.028   4.070   4.603 -0.1115 -0.1120 -0.2916
 3314WAT     H210154   0.990   4.215   4.579 -0.6602 -0.3263 -0.7448
 3315WAT      O10155   4.807   1.590   0.982 -0.8876  0.1592 -0.3532
 3315WAT     H110156   4.802   1.562   0.891 -0.8426 -1.8687  0.2256
 3315WAT     H210157   4.722   1.631   1.000 -2.1296 -2.2419 -0.4675
 3316WAT      O10158   0.995   2.073   3.160  0.1381  0.8779  0.1773
 3316WAT     H110159   1.054   2.072   3.236 -0.2468  0.0098  0.4777
 3316WAT     H210160   0.909   2.095   3.197  0.3940  2.9912 -0.3726
 3317WAT      O10161   1.855   0.032   2.339 -0.0186  0.2635  0.2501
 3317WAT     H110162   1.845   0.116   2.384  1.2903  2.0450 -2.5352
 3317WAT     H210163   1.946   0.008   2.354  0.2974  0.6358 -0.9591
 3318WAT      O10164   4.474   5.182   1.710  0.1111 -0.7075 -0.6929
 3318WAT     H110165   4.567   5.201   1.706 -0.3210  1.9172  0.0303
 3318WAT     H210166   4.468   5.087   1.697  3.0680 -1.4062  1.9028
 3319WAT      O10167   0.963   3.149   2.715  0.1984  0.1549 -0.2260
 3319WAT     H110168   0.950   3.244   2.716 -1.8671 -0.0740 -0.6226
 3319WAT     H210169   0.975   3.127   2.622  0.2613 -0.0203 -0.1771
 3320WAT      O10170   0.484   2.566   1.412 -0.5405  0.0884 -0.4480
 3320WAT     H110171   0.529   2.560   1.497 -1.6514  1.1896  0.2536
 3320WAT     H210172   0.539   2.626   1.361 -0.8713  0.9781  0.2075
 3321WAT      O10173   4.661   4.473   2.697  0.2781 -0.3087 -0.6249
 3321WAT     H110174   4.750   4.509   2.702 -0.0728  0.6365 -0.8886
 3321WAT     H210175   4.617   4.527   2.631 -0.4231 -0.9161 -0.6620
 3322WAT      O10176   4.292   2.739   0.220  0.0526  0.1722 -0.2056
 3322WAT     H110177   4.277   2.788   0.139  0.7609 -1.8092 -1.6232
 3322WAT     H210178   4.218   2.679   0.225  0.9735 -1.0160 -0.4396
 3323WAT      O10179   2.511   0.724   1.999 -0.6673 -0.4576  0.4916
 3323WAT     H110180   2.495   0.630   2.001  1.3013 -0.8452 -0.4039
 3323WAT     H210181   2.495   0.753   2.089  0.8553 -2.0466  1.3343
 3324WAT      O10182   1.908   3.525   3.717 -0.6451  0.3925  0.1140
 3324WAT     H110183   1.979   3.570   3.670 -0.6075  0.0675 -0.1455
 3324WAT     H210184   1.866   3.471   3.650  0.8300 -1.8538  0.8797
 3325WAT      O10185   3.455   4.593   1.604  0.4871 -0.1614  0.0410
 3325WAT     H110186   3.429   4.511   1.563 -0.8685  0.7299 -0.9998
 3325WAT     H210187   3.458   4.656   1.531  1.2099  0.7736  0.8513
 3326WAT      O10188   0.410   2.811   0.113  0.5638  0.4126  0.7434
 3326WAT     H110189   0.376   2.864   0.042  2.0272  1.5868  0.8555
 3326WAT     H210190   0.476   2.867   0.155  0.8852 -0.8435  2.0064
 3327WAT      O10191   4.021   5.472   4.054  0.0462  0.2869 -0.4283
 3327WAT     H110192   3.956   5.423   4.003  0.0910 -0.0857 -0.1265
 3327WAT     H210193   4.106   5.438   4.025  0.1160  0.8424 -0.8944
 3328WAT      O10194   1.966   1.180   2.610 -0.2009 -0.3416 -0.7416
 3328WAT     H110195   1.939   1.088   2.617 -0.7708 -0.1251  0.1379
 3328WAT     H210196   1.897   1.228   2.655  0.6334  0.4193 -0.2405
 3329WAT      O10197   0.931   0.679   2.150 -0.7140 -0.0557  0.3088
 3329WAT     H110198   0.912   0.694   2.243 -2.3624 -1.4785  0.2536
 3329WAT     H210199   0.863   0.727   2.103  0.0254  0.5371 -0.1664
 3330WAT      O10200   0.802   2.380   4.121  0.1125  0.0539 -0.2767
 3330WAT     H110201   0.853   2.341   4.192 -0.9388 -0.6635  0.1132
 3330WAT     H210202   0.867   2.413   4.059  1.0371 -0.2179  0.5356
 3331WAT      O10203   2.695  -0.006   1.259 -0.8206 -0.0868  0.2560
 3331WAT     H110204   2.651  -0.019   1.175 -0.5587 -0.1764  0.1347
 3331WAT     H210205   2.650   0.070   1.298 -0.2792  0.5788 -0.4028
 3332WAT      O10206   1.065   2.839   4.176 -0.2025 -0.1388  0.2374
 3332WAT     H110207   1.059   2.857   4.270  1.7935 -1.1091  0.6056
 3332WAT     H210208   0.975   2.816   4.151 -0.4272 -2.1642  2.4476
 3333WAT      O10209   0.723   1.604   2.444 -0.4348  0.3082  0.0707
 3333WAT     H110210   0.793   1.600   2.509  1.8021  0.0269 -2.2001
 3333WAT     H210211   0.748   1.676   2.386 -1.0689 -0.8787 -1.7741
 3334WAT      O10212   4.448   3.025   2.052 -0.1168 -0.2156 -0.1482
 3334WAT     H110213   4.395   2.963   2.001 -0.2619  0.2043 -0.5154
 3334WAT     H210214   4.384   3.077   2.100 -0.0030 -0.2046 -0.0079
 3335WAT      O10215   0.732   4.089   3.126  0.3860  0.4702  0.0401
 3335WAT     H110216   0.733   4.137   3.209  0.4082  0.5183  0.0119
 3335WAT     H210217   0.687   4.007   3.147  0.8752  0.2473  0.2301
 3336WAT      O10218   1.125   2.550   1.344  0.0369 -0.1897 -0.5878
 3336WAT     H110219   1.073   2.620   1.305  2.3265  0.5948 -2.4406
 3336WAT     H210220   1.078   2.528   1.425 -2.0773  1.7511 -1.1795
 3337WAT      O10221   1.462   4.505   1.252 -0.2435 -0.1491  0.1877
 3337WAT     H110222   1.367   4.511   1.263 -0.5383 -0.8724 -1.5749
 3337WAT     H210223   1.492   4.596   1.256 -1.1944  0.2107 -0.5226
 3338WAT      O10224   1.593   0.810   2.372  0.5234 -0.3949  0.5351
 3338WAT     H110225   1.667   0.870   2.370  1.5873 -1.6181 -2.4578
 3338WAT     H210226   1.522   0.857   2.327 -0.3201  0.4144  2.5775
 3339WAT      O10227  -0.001   5.595   2.227 -0.1466  0.1410 -0.1787
 3339WAT     H110228  -0.008   5.570   2.135 -0.2212  2.1110 -0.7575
 3339WAT     H210229   0.032   5.517   2.271  1.9752 -0.2309 -2.2232
 3340WAT      O10230   2.804   2.363   1.562  0.8483 -0.1304  0.1926
 3340WAT     H110231   2.774   2.277   1.534  1.0706 -0.1909  0.1457
 3340WAT     H210232   2.836   2.350   1.651  2.7805 -0.5195 -0.5212
 3341WAT      O10233   0.890   3.461   3.589  0.3280 -0.2391 -0.3246
 3341WAT     H110234   0.962   3.524   3.594 -0.1124  0.3188 -0.8128
 3341WAT     H210235   0.898   3.410   3.669  0.9940  0.1123 -0.1528
 3342WAT      O10236   2.060   1.619   3.155 -0.3659  0.8841 -0.0086
 3342WAT     H110237   2.118   1.598   3.228 -0.7923  0.0384  0.0941
 3342WAT     H210238   2.113   1.675   3.098  1.2676 -1.4385 -0.9160
 3343WAT      O10239   1.324   1.503   0.436 -0.1783  0.1105  0.4144
 3343WAT     H110240   1.280   1.566   0.379 -2.9175 -0.7913  1.3398
 3343WAT     H210241   1.329   1.547   0.521  2.4261  0.8495 -0.0541
 3344WAT      O10242   0.608   0.049   3.633 -0.5810  0.2464 -0.3759
 3344WAT     H110243   0.631   0.140   3.613 -1.1178  0.5841  0.5105
 3344WAT     H210244   0.539   0.028   3.570 -1.0981  0.7597  0.0089
 3345WAT      O10245   4.130   4.380   3.303 -0.3788 -0.0123  0.1633
 3345WAT     H110246   4.142   4.345   3.215  1.3696 -0.6887  0.6288
 3345WAT     H210247   4.218   4.401   3.332 -0.6932 -1.5915  2.4834
 3346WAT      O10248   3.509   2.304   5.545  0.3314  0.2386 -0.1346
 3346WAT     H110249   3.594   2.314   5.588  0.4708 -0.9734 -0.0719
 3346WAT     H210250   3.453   2.264   5.612 -0.6231  2.0117  0.1735
 3347WAT      O10251   1.358   3.811   0.366 -0.5689 -0.0471 -0.1784
 3347WAT     H110252   1.402   3.763   0.436  0.3176 -2.0015 -1.9650
 3347WAT     H210253   1.397   3.898   0.369  0.5632 -0.5626  0.8025
 3348WAT      O10254   2.750   2.190   5.806  0.0965  0.4638  0.0957
 3348WAT     H110255   2.688   2.197   5.879  0.1831 -1.8489  0.4739
 3348WAT     H210256   2.695   2.184   5.728 -0.1822 -1.0986  0.3847
 3349WAT      O10257   3.666   0.728   3.663 -0.5618  0.3889  0.2255
 3349WAT     H110258   3.645   0.674   3.740  0.3357 -0.6534 -0.2361
 3349WAT     H210259   3.627   0.681   3.590  0.0676  0.4649 -0.1655
 3350WAT      O10260   0.075   2.053   3.043  0.0580 -0.2254  0.2931
 3350WAT     H110261   0.047   2.040   3.134  1.7471 -1.9475  0.6422
 3350WAT     H210262   0.130   2.131   3.046  0.3377 -0.4337  0.8181
 3351WAT      O10263   4.695   2.567   0.491 -0.2482 -0.3558 -0.3885
 3351WAT     H110264   4.718   2.637   0.553 -1.1819 -1.3268  1.1483
 3351WAT     H210265   4.599   2.571   0.486 -0.3337 -1.6391 -0.0919
 3352WAT      O10266   1.595   3.616   1.480 -0.1402  0.2879 -0.4457
 3352WAT     H110267   1.615   3.597   1.571 -0.1718  1.3354 -0.2114
 3352WAT     H210268   1.642   3.549   1.430  0.0070 -0.1892  0.3241
 3353WAT      O10269   4.875   0.746   2.758  0.3995 -0.2030 -0.2980
 3353WAT     H110270   4.913   0.822   2.714  1.4461 -0.4245  0.2067
 3353WAT     H210271   4.880   0.767   2.851 -1.2072 -0.0162 -0.2320
 3354WAT      O10272   1.900   3.747   4.682 -0.1735  0.1549  0.0365
 3354WAT     H110273   1.859   3.807   4.620 -1.4414 -1.1430 -0.4300
 3354WAT     H210274   1.842   3.748   4.758 -0.1698 -0.4048  0.0507
 3355WAT      O10275   0.429   0.803   2.892  0.0053 -0.1353  0.9560
 3355WAT     H110276   0.409   0.881   2.840  3.1721 -0.0980 -0.4249
 3355WAT     H210277   0.366   0.737   2.862  1.3220  0.0384 -2.7085
 3356WAT      O10278   1.302   2.593   2.539  0.1527 -0.5999 -0.0039
 3356WAT     H110279   1.262   2.506   2.546 -0.8734 -0.1172  0.3850
 3356WAT     H210280   1.271   2.626   2.454  0.3151 -0.5046 -0.0251
 3357WAT      O10281   1.694   2.134   5.075 -0.6082 -0.0704  0.3309
 3357WAT     H110282   1.723   2.121   5.166 -1.8744 -0.1773  0.7367
 3357WAT     H210283   1.713   2.050   5.032 -1.1767 -0.4722  0.8404
 3358WAT      O10284   0.661   2.198   0.946 -0.1791  0.7705 -0.1301
 3358WAT     H110285   0.620   2.170   1.028  3.6133 -0.4936  1.5769
 3358WAT     H210286   0.688   2.289   0.962 -0.0205  0.7425 -0.2338
 3359WAT      O10287   4.921   4.671   2.448  0.2598  0.2178  0.4367
 3359WAT     H110288   4.939   4.629   2.532 -0.3078  0.1422  0.5218
 3359WAT     H210289   4.931   4.601   2.383 -1.4953 -0.2865  0.6479
 3360WAT      O10290   4.125   4.259   2.056  0.6668  0.0296  0.6920
 3360WAT     H110291   4.137   4.229   2.147  1.0049  0.4228  0.7809
 3360WAT     H210292   4.211   4.289   2.029  0.9695 -1.6633 -0.3574
 3361WAT      O10293   3.375   1.348   2.464  0.3053  0.1054  0.3931
 3361WAT     H110294   3.434   1.324   2.393 -0.3380 -1.7980  0.4388
 3361WAT     H210295   3.354   1.265   2.507 -1.2226  0.9095  1.3020
 3362WAT      O10296   1.849   2.993   0.168 -0.0923 -0.0724  0.0511
 3362WAT     H110297   1.857   2.934   0.243  1.4790  0.7311  0.5669
 3362WAT     H210298   1.939   3.005   0.138 -0.6481  0.0649 -1.6281
 3363WAT      O10299   0.587   3.794   3.550  0.0509  0.2948  0.1418
 3363WAT     H110300   0.524   3.727   3.575 -2.2425  2.3676  0.3280
 3363WAT     H210301   0.672   3.754   3.565 -1.2023 -2.3376  0.7772
 3364WAT      O10302   4.226   3.228   4.542 -0.1070  0.0226  0.3594
 3364WAT     H110303   4.224   3.193   4.453 -1.6407 -0.3786  0.5128
 3364WAT     H210304   4.177   3.310   4.537  2.6061  1.7706  0.2126
 3365WAT      O10305   0.882   3.525   4.199 -0.0381 -0.4246 -0.4249
 3365WAT     H110306   0.840   3.484   4.275 -0.8674 -1.3453 -1.3578
 3365WAT     H210307   0.889   3.618   4.224 -0.8997 -0.5856  0.5195
 3366WAT      O10308   1.276   3.325   3.602  0.4528 -0.5320  0.1941
 3366WAT     H110309   1.220   3.291   3.532 -0.1697  0.6130  0.1037
 3366WAT     H210310   1.339   3.382   3.556  0.5550 -0.4125  0.4820
 3367WAT      O10311   3.931   3.298   3.251 -0.0302  0.1029 -0.1550
 3367WAT     H110312   3.957   3.217   3.207  0.4024 -0.6192  1.3449
 3367WAT     H210313   3.988   3.365   3.214  1.6422 -0.8360  0.6024
 3368WAT      O10314   3.952   0.951   1.741  0.5249 -0.1753  0.0765
 3368WAT     H110315   3.988   0.987   1.659  0.0737  0.4958  0.1667
 3368WAT     H210316   4.011   0.879   1.763  2.2010  1.2790  0.5515
 3369WAT      O10317   0.130   3.690   1.015 -0.1818 -0.5585 -0.2443
 3369WAT     H110318   0.081   3.768   0.991  0.6318 -0.1318 -0.5604
 3369WAT     H210319   0.211   3.696   0.964 -0.7835 -2.4276 -1.5412
 3370WAT      O10320   2.273   4.849   3.119  0.3678  0.5026  0.6359
 3370WAT     H110321   2.303   4.843   3.029  2.9353 -3.1010  1.4953
 3370WAT     H210322   2.344   4.891   3.166  0.4864 -0.5412  1.4299
 3371WAT      O10323   0.108   0.777   4.463  0.5066 -0.1053  0.5779
 3371WAT     H110324   0.069   0.736   4.386  1.3983 -0.2445  0.1952
 3371WAT     H210325   0.180   0.719   4.488  1.4553  0.9358  0.3370
 3372WAT      O10326   4.879   2.743   5.705  0.4264  0.1104  0.0882
 3372WAT     H110327   4.948   2.688   5.666  0.1787 -0.0571 -0.1167
 3372WAT     H210328   4.927   2.813   5.749  0.7475 -0.2731  0.3595
 3373WAT      O10329   2.635   0.420   3.745  0.2871  0.2949  0.5456
 3373WAT     H110330   2.728   0.440   3.733  0.8100 -1.5217  1.2753
 3373WAT     H210331   2.594   0.449   3.664  2.2089 -2.9445 -1.8215
 3374WAT      O10332   1.906   4.823   3.010 -0.9238 -0.3545 -0.1521
 3374WAT     H110333   1.981   4.780   2.970 -0.2361  0.6015  0.0781
 3374WAT     H210334   1.870   4.757   3.070  0.4956 -0.4082  0.6790
 3375WAT      O10335   1.254   1.166   2.724 -0.0850 -0.6911  0.2342
 3375WAT     H110336   1.172   1.196   2.685  0.5745 -0.0358 -0.6944
 3375WAT     H210337   1.234   1.154   2.817 -1.3981 -1.2107 -0.0992
 3376WAT      O10338   1.995   0.507   2.644  0.1143 -0.5357 -0.2400
 3376WAT     H110339   1.991   0.455   2.564 -2.7670  0.8027 -1.0945
 3376WAT     H210340   2.019   0.595   2.616 -1.5220  0.0923  0.2287
 3377WAT      O10341   3.960   3.643   3.789 -0.4156  0.3581 -0.3487
 3377WAT     H110342   3.930   3.559   3.754 -2.1075  0.5828  0.4465
 3377WAT     H210343   3.974   3.698   3.712  1.7148 -0.9036 -0.9558
 3378WAT      O10344   3.486   3.414   3.960 -0.1362  0.0687 -0.2585
 3378WAT     H110345   3.391   3.404   3.958 -0.2564  0.8585  0.5666
 3378WAT     H210346   3.503   3.491   3.906 -0.0246  0.2229 -0.0103
 3379WAT      O10347   0.355   4.370   1.816  0.1713  0.3220 -0.1652
 3379WAT     H110348   0.412   4.400   1.745  0.9054 -0.4237  0.0844
 3379WAT     H210349   0.394   4.406   1.895  0.3555 -0.2488  0.0146
 3380WAT      O10350   2.366   4.615   1.788  0.1969 -0.6075 -0.2967
 3380WAT     H110351   2.386   4.647   1.876  1.5981 -1.8775 -0.1073
 3380WAT     H210352   2.270   4.617   1.783  0.0945 -0.4901  1.2431
 3381WAT      O10353   0.443   4.359   2.642 -0.2055  0.2645  0.0457
 3381WAT     H110354   0.475   4.278   2.603 -2.0382 -0.9908  0.9690
 3381WAT     H210355   0.348   4.348   2.646 -0.4034  1.8771  1.4546
 3382WAT      O10356   4.236   1.748   3.569  0.9861  0.4401 -0.1901
 3382WAT     H110357   4.290   1.753   3.490  0.7329  1.5237 -0.3068
 3382WAT     H210358   4.282   1.685   3.625  1.2292 -0.2605 -1.1425
 3383WAT      O10359   0.599   2.763   3.219  0.8034  0.1341 -0.2686
 3383WAT     H110360   0.657   2.691   3.242  1.0887  1.1449  2.5965
 3383WAT     H210361   0.657   2.830   3.182  0.9887 -0.0120 -0.2393
 3384WAT      O10362   0.856   3.777   3.678  0.4543 -0.0989  0.1303
 3384WAT     H110363   0.906   3.703   3.644  1.5049  0.2726  0.8280
 3384WAT     H210364   0.864   3.770   3.773 -1.8508 -0.7177  0.3291
 3385WAT      O10365   3.394   2.220   3.759  0.6007 -0.0985  0.0919
 3385WAT     H110366   3.304   2.239   3.734  0.5777  1.3447  1.1091
 3385WAT     H210367   3.437   2.306   3.757  1.9894 -0.7829 -0.4848
 3386WAT      O10368   0.400   4.449   3.717 -0.0558  0.2352  0.1952
 3386WAT     H110369   0.359   4.530   3.751 -0.2583 -0.4316  1.6390
 3386WAT     H210370   0.374   4.382   3.780  0.5161 -0.8685 -0.7222
 3387WAT      O10371   0.559   3.346   3.450  0.5279 -0.3253 -0.0880
 3387WAT     H110372   0.619   3.272   3.451 -0.0900 -0.8486  1.4251
 3387WAT     H210373   0.570   3.385   3.363  2.1974 -1.0815 -0.2501
 3388WAT      O10374   1.337   0.550   2.407 -0.5207 -0.3127 -0.4100
 3388WAT     H110375   1.255   0.521   2.366 -0.0842 -0.8690 -0.8957
 3388WAT     H210376   1.401   0.550   2.336 -0.0805  0.0640 -0.0192
 3389WAT      O10377   0.626   4.535   3.091 -0.0332 -0.2297 -0.0521
 3389WAT     H110378   0.552   4.533   3.151  0.0605  1.2675  0.1558
 3389WAT     H210379   0.588   4.565   3.008  0.4439  1.3610  0.2737
 3390WAT      O10380   4.041   4.512   2.779  0.4541 -0.0313  0.2453
 3390WAT     H110381   3.961   4.524   2.729  0.1173 -1.1126  0.5042
 3390WAT     H210382   4.093   4.452   2.727  2.0681  2.2493 -0.9826
 3391WAT      O10383   4.880   2.085   2.828 -0.1112  0.1667  0.1751
 3391WAT     H110384   4.932   2.097   2.907 -0.6193 -0.0103  0.5429
 3391WAT     H210385   4.809   2.026   2.854 -1.2968  1.5007  0.0514
 3392WAT      O10386   2.163   1.526   0.361  0.0495  0.3155  0.1920
 3392WAT     H110387   2.174   1.435   0.389 -0.6959 -0.5331 -2.0578
 3392WAT     H210388   2.110   1.521   0.282  3.1219  2.3532 -2.2516
 3393WAT      O10389   0.287   3.326   2.226 -0.9402 -0.2744 -0.2139
 3393WAT     H110390   0.217   3.265   2.203 -0.5647 -0.3333 -1.2431
 3393WAT     H210391   0.255   3.412   2.196 -0.4559 -0.3475 -0.9608
 3394WAT      O10392   1.121   3.608   2.692  0.0999 -1.2772  0.1704
 3394WAT     H110393   1.196   3.582   2.744  0.3357  0.6477  0.8799
 3394WAT     H210394   1.058   3.536   2.702  1.1001 -2.0415  1.1099
 3395WAT      O10395   1.639   4.591   1.791 -0.8840 -0.0760  0.4428
 3395WAT     H110396   1.679   4.604   1.705 -0.5511 -0.9767  0.4421
 3395WAT     H210397   1.713   4.575   1.849 -1.1565 -0.3755  0.7125
 3396WAT      O10398   3.650   2.372   3.284  0.3021  0.0654  0.0584
 3396WAT     H110399   3.652   2.281   3.256 -4.1035 -0.0984 -0.5602
 3396WAT     H210400   3.672   2.370   3.377 -0.7554 -1.8212  0.3184
 3397WAT      O10401   2.150   4.439   4.015  0.1318  0.0375  0.1437
 3397WAT     H110402   2.063   4.464   4.047  0.5603 -0.1994  1.5975
 3397WAT     H210403   2.195   4.406   4.093  1.8798  1.0994 -0.3534
 3398WAT      O10404   3.126   3.196   1.291  0.3527 -0.0784 -0.2924
 3398WAT     H110405   3.164   3.121   1.246 -0.5047  0.2161 -1.5589
 3398WAT     H210406   3.159   3.272   1.243 -2.5569  0.1665 -2.1514
 3399WAT      O10407   1.132   4.100   0.781  0.1397 -0.2399 -0.2282
 3399WAT     H110408   1.095   4.035   0.841 -0.9894  0.5168 -0.0797
 3399WAT     H210409   1.145   4.052   0.699  0.9884 -1.0895  0.3786
 3400WAT      O10410   1.083   0.878   2.725  0.3639 -0.5061 -0.5848
 3400WAT     H110411   1.171   0.860   2.758  1.3352  1.3844 -1.9432
 3400WAT     H210412   1.060   0.801   2.673  0.5036 -1.7129  1.0507
 3401WAT      O10413   1.517   1.022   1.011  0.0148 -0.3006 -0.2168
 3401WAT     H110414   1.536   0.935   0.974  0.7209 -0.4412  0.4446
 3401WAT     H210415   1.472   1.003   1.093  1.7913 -0.1323  0.8620
 3402WAT      O10416   1.229   5.395   3.842 -0.3206  0.1834 -0.0044
 3402WAT     H110417   1.294   5.451   3.799 -1.2197  1.7673  0.6015
 3402WAT     H210418   1.281   5.324   3.881  0.8356  0.4470 -1.0045
 3403WAT      O10419   1.119   5.382   1.257  0.6697  0.2525 -0.2853
 3403WAT     H110420   1.147   5.401   1.167  0.4487  0.0871 -0.3887
 3403WAT     H210421   1.134   5.288   1.267  0.7453  0.2806 -0.1303
 3404WAT      O10422   2.088   5.433   1.374 -0.0682 -0.3095  0.8433
 3404WAT     H110423   2.172   5.406   1.336  0.6148  1.3170  1.0932
 3404WAT     H210424   2.040   5.352   1.387  0.3791 -1.0872 -1.8225
 3405WAT      O10425   0.215   3.179   0.464  0.2481  0.0729 -0.6579
 3405WAT     H110426   0.238   3.126   0.389 -0.4676  0.7902 -1.4037
 3405WAT     H210427   0.130   3.146   0.492 -0.2431  0.8758 -1.1830
 3406WAT      O10428   4.125   3.468   3.132 -0.2287  0.3921 -0.0647
 3406WAT     H110429   4.190   3.525   3.174 -0.1585  0.2757 -0.0149
 3406WAT     H210430   4.097   3.517   3.054  0.1815  0.2897 -0.2807
 3407WAT      O10431   2.762   3.603   2.340  0.1641  0.3032  0.6433
 3407WAT     H110432   2.760   3.692   2.373 -1.0767  0.6497 -0.2974
 3407WAT     H210433   2.677   3.591   2.297  1.1154 -0.6002 -1.1050
 3408WAT      O10434   4.050   0.771   0.913 -0.3477 -0.3551  0.5135
 3408WAT     H110435   4.119   0.831   0.942 -0.6630 -0.4675  1.5097
 3408WAT     H210436   4.090   0.723   0.840 -0.0698  0.9909 -0.2456
 3409WAT      O10437   0.643   2.877   0.791  0.0800 -0.0902  0.4744
 3409WAT     H110438   0.679   2.807   0.737 -3.1323 -1.7293  0.2606
 3409WAT     H210439   0.576   2.917   0.737  0.3004  1.6997  1.4489
 3410WAT      O10440   0.706   4.068   2.547 -0.2458  0.6363 -0.6118
 3410WAT     H110441   0.787   4.093   2.590  1.2574 -1.0636 -2.2388
 3410WAT     H210442   0.674   3.993   2.597 -1.3786  1.8292  0.5551
 3411WAT      O10443   2.183   3.510   4.146  0.2088 -0.5238 -0.1544
 3411WAT     H110444   2.256   3.557   4.107 -0.0579  0.7913  0.8758
 3411WAT     H210445   2.107   3.537   4.094 -0.0114  0.5440  0.7080
 3412WAT      O10446   2.081   0.862   3.560  0.5664  0.3143  0.0024
 3412WAT     H110447   2.072   0.858   3.465  0.5064  1.7537 -0.0704
 3412WAT     H210448   2.097   0.954   3.579  0.9371 -0.0081  1.3651
 3413WAT      O10449   4.169   0.972   1.058  0.5439  0.1820  0.1769
 3413WAT     H110450   4.147   1.061   1.084  2.5252  1.0026 -0.7577
 3413WAT     H210451   4.263   0.965   1.073  0.5117 -1.6141 -0.2013
 3414WAT      O10452   0.062   1.628   4.663 -0.2281 -0.1125 -0.2722
 3414WAT     H110453   0.143   1.664   4.626 -1.1754  1.3219 -1.0359
 3414WAT     H210454   0.086   1.604   4.753  0.9986  0.4555 -0.4244
 3415WAT      O10455   0.022   1.724   5.251  0.3484  0.1181 -0.1587
 3415WAT     H110456   0.090   1.790   5.268 -0.9441  1.2609  0.8868
 3415WAT     H210457   0.068   1.651   5.210  2.2495  0.7280  0.7906
 3416WAT      O10458   0.094   1.256   1.375  0.1648 -0.8633 -0.7716
 3416WAT     H110459   0.136   1.173   1.349 -1.1660 -1.3651 -1.3918
 3416WAT     H210460   0.138   1.322   1.321  0.6504 -1.2744 -0.8964
 3417WAT      O10461   3.425   2.905   2.671 -0.1847 -0.2386 -0.0576
 3417WAT     H110462   3.397   2.976   2.614 -0.2152  0.6877  1.0755
 3417WAT     H210463   3.498   2.864   2.624 -0.8145 -0.1066 -1.1782
 3418WAT      O10464   1.826   1.090   1.055  0.2605 -0.3802  0.0835
 3418WAT     H110465   1.732   1.070   1.061  0.1103  0.0168 -0.7858
 3418WAT     H210466   1.833   1.183   1.076  0.5286 -0.5356  0.6855
 3419WAT      O10467   0.233   4.294   2.346 -0.0640  0.2754  0.4850
 3419WAT     H110468   0.210   4.202   2.335 -0.0296  0.3533 -0.2466
 3419WAT     H210469   0.329   4.293   2.351 -0.0262  0.3423 -0.2095
 3420WAT      O10470   3.930   2.661   3.503 -0.6041  0.4611  0.2808
 3420WAT     H110471   3.905   2.737   3.556 -3.4424 -1.7635  2.4468
 3420WAT     H210472   3.847   2.628   3.469  0.1543 -3.1146  1.5583
 3421WAT      O10473   2.903   3.386   4.279  0.0803 -0.0767  0.7736
 3421WAT     H110474   2.906   3.295   4.306  1.2294  0.2858  1.9745
 3421WAT     H210475   2.850   3.429   4.347  0.1802  0.2827  0.6278
 3422WAT      O10476   3.841   4.944   3.330 -0.1123  0.0580  0.0027
 3422WAT     H110477   3.831   4.956   3.235 -0.8827  0.2712  0.1025
 3422WAT     H210478   3.859   4.851   3.341  1.1089  0.2268 -0.4334
 3423WAT      O10479   3.131   1.200   2.691  0.2757  0.1573  0.3929
 3423WAT     H110480   3.175   1.168   2.770  2.9140  0.6339 -0.7676
 3423WAT     H210481   3.118   1.293   2.707  0.4321  0.1740  0.4241
 3424WAT      O10482   0.262   1.906   2.629 -0.3351  0.4011 -0.5513
 3424WAT     H110483   0.190   1.966   2.610 -0.1258  1.0014  0.4694
 3424WAT     H210484   0.340   1.961   2.626  0.1109 -0.2537 -1.7058
 3425WAT      O10485   0.587   3.729   3.859  0.1049  0.5810 -0.6872
 3425WAT     H110486   0.582   3.664   3.790 -0.3359  0.8581 -0.9228
 3425WAT     H210487   0.593   3.813   3.813  1.5238  0.6585 -0.3927
 3426WAT      O10488   0.866   1.611   3.056  0.1463 -0.4420 -1.1392
 3426WAT     H110489   0.817   1.617   3.138  0.2753 -1.1610 -1.0034
 3426WAT     H210490   0.921   1.690   3.055  0.5740 -0.7186 -0.2486
 3427WAT      O10491   2.168   3.393   2.137  0.0250 -0.1005 -0.0078
 3427WAT     H110492   2.116   3.341   2.076  2.5495 -1.8187 -0.8410
 3427WAT     H210493   2.199   3.331   2.202  0.5474  0.9788  0.8099
 3428WAT      O10494   1.778   0.726   1.123 -0.4512  0.2142 -0.1883
 3428WAT     H110495   1.757   0.715   1.215 -0.3842  0.5779 -0.1277
 3428WAT     H210496   1.873   0.736   1.121 -0.4197 -0.0848 -0.3282
 3429WAT      O10497   1.360   3.166   5.013 -0.2072 -0.4828 -0.4926
 3429WAT     H110498   1.419   3.217   4.956 -0.6347  0.7574  0.1426
 3429WAT     H210499   1.278   3.215   5.012 -1.3596 -2.3367 -1.5852
 3430WAT      O10500   1.625   4.164   4.454 -0.3331 -0.3193  0.0174
 3430WAT     H110501   1.542   4.173   4.407 -1.2215 -0.4968  1.5153
 3430WAT     H210502   1.651   4.254   4.473  0.5787 -0.1758 -1.6597
 3431WAT      O10503   1.069   4.267   5.741 -0.0106 -0.2202 -0.1516
 3431WAT     H110504   1.068   4.281   5.647 -0.6753  0.7198 -0.0159
 3431WAT     H210505   1.049   4.174   5.753 -0.8178 -0.1424 -0.8966
 3432WAT      O10506   1.538   2.913   4.384 -0.1369 -0.1633  0.0613
 3432WAT     H110507   1.600   2.872   4.444 -0.3262 -1.3501 -0.5300
 3432WAT     H210508   1.522   2.847   4.317 -2.9796 -0.4191  0.8514
 3433WAT      O10509   0.058   0.143   3.471  0.1753  0.0022  0.1267
 3433WAT     H110510   0.097   0.094   3.399 -1.6289  1.5870 -2.0726
 3433WAT     H210511   0.116   0.219   3.482  0.1066  0.0834 -0.0781
 3434WAT      O10512   3.392   3.057   4.508 -0.3560 -0.7404  0.0277
 3434WAT     H110513   3.358   3.130   4.456  1.1113  0.1983  0.3084
 3434WAT     H210514   3.424   2.994   4.443 -0.5427 -0.5808 -0.2186
 3435WAT      O10515   3.168   2.877   2.874 -0.6874  0.1155 -0.3260
 3435WAT     H110516   3.219   2.796   2.868 -0.6375  0.1694 -0.6094
 3435WAT     H210517   3.086   2.857   2.828 -0.4016  0.4458 -0.9747
 3436WAT      O10518   2.253   3.704   1.796 -0.0831  0.4109  0.1992
 3436WAT     H110519   2.317   3.769   1.766 -0.5755  0.9716  0.3277
 3436WAT     H210520   2.305   3.638   1.843  0.1611  2.3351  2.8843
 3437WAT      O10521   0.290   4.861   2.481  0.2158 -0.1583  0.0293
 3437WAT     H110522   0.307   4.800   2.553 -1.6358 -0.9601 -0.1702
 3437WAT     H210523   0.210   4.907   2.507  0.1564  0.3549 -1.0049
 3438WAT      O10524   0.482   1.897   1.641  0.2907  0.4219 -0.2366
 3438WAT     H110525   0.407   1.858   1.597  0.4387 -0.0276 -0.0909
 3438WAT     H210526   0.446   1.937   1.720  0.1377  0.5878 -0.3903
 3439WAT      O10527   1.207   3.276   2.303  0.1668  0.2321 -0.5761
 3439WAT     H110528   1.229   3.307   2.390 -1.6300 -0.9509  0.3772
 3439WAT     H210529   1.290   3.249   2.265  0.9732  0.7080  0.7914
 3440WAT      O10530   2.064   3.961   3.455 -0.1166  0.5628  0.1454
 3440WAT     H110531   2.090   3.921   3.537 -1.5208 -1.3315 -0.2450
 3440WAT     H210532   2.121   3.921   3.389 -0.2494  0.6373 -0.0173
 3441WAT      O10533   1.041   2.364   4.268  0.3306 -0.0959  0.3483
 3441WAT     H110534   1.104   2.303   4.231 -0.4492 -1.0356  0.5492
 3441WAT     H210535   1.085   2.450   4.261  2.6493 -0.9538  2.6225
 3442WAT      O10536   1.542   4.864   3.098 -0.3968 -0.6199 -0.0096
 3442WAT     H110537   1.635   4.864   3.076  0.2294  0.8779  2.3096
 3442WAT     H210538   1.533   4.799   3.168 -0.5766  0.9032  1.4509
 3443WAT      O10539   1.901   0.414   1.426  0.0471 -0.3031 -0.6746
 3443WAT     H110540   1.908   0.321   1.407  1.9218 -0.7542  1.7189
 3443WAT     H210541   1.836   0.420   1.495 -0.3285  0.2233 -1.0631
 3444WAT      O10542   2.875   0.581   3.319  0.3825  0.4929  0.4563
 3444WAT     H110543   2.897   0.543   3.234  1.5900  1.2833  0.3892
 3444WAT     H210544   2.780   0.570   3.326  0.2273  0.6109 -1.0898
 3445WAT      O10545   1.424   3.231   1.388 -0.5044  0.0233  0.7019
 3445WAT     H110546   1.501   3.199   1.340  1.0936 -0.8400  3.5977
 3445WAT     H210547   1.391   3.303   1.334  2.7284  0.8573 -0.4112
 3446WAT      O10548   0.069   2.705   1.312  0.0196 -0.6500  0.1386
 3446WAT     H110549   0.147   2.720   1.364 -0.3661 -0.7714  0.7652
 3446WAT     H210550   0.046   2.791   1.277 -0.2427 -0.3906  0.9314
 3447WAT      O10551   2.112   3.643   2.792  0.0531 -0.2590  0.3686
 3447WAT     H110552   2.196   3.597   2.794 -0.1945 -0.7154  0.2210
 3447WAT     H210553   2.086   3.642   2.700 -1.5290 -2.7011  0.7524
 3448WAT      O10554   4.967   3.260   2.886  0.0924 -0.3629  0.4092
 3448WAT     H110555   4.892   3.298   2.933  0.0986  1.1441 -0.7254
 3448WAT     H210556   4.952   3.283   2.794  1.9926  0.1084  0.1640
 3449WAT      O10557   1.114   4.025   1.916 -1.0481  0.5343 -0.2761
 3449WAT     H110558   1.209   4.022   1.921 -1.0168  0.5291 -0.7567
 3449WAT     H210559   1.087   3.933   1.913 -1.0245  0.5406 -0.7677
 3450WAT      O10560   4.716   3.744   1.484  0.1460  0.4438  0.3380
 3450WAT     H110561   4.712   3.752   1.579  2.4126  2.5294  0.3527
 3450WAT     H210562   4.808   3.723   1.465 -0.4898 -1.0476 -1.3679
 3451WAT      O10563   0.935   2.326   3.015 -1.1506 -0.1224  0.0889
 3451WAT     H110564   0.996   2.398   3.000 -2.2759  0.6303 -1.0611
 3451WAT     H210565   0.984   2.264   3.069  0.1422  1.0905  0.3579
 3452WAT      O10566   4.808   0.382   3.363 -0.4007  0.0867 -0.0758
 3452WAT     H110567   4.884   0.361   3.417 -1.0644 -1.3254  0.3533
 3452WAT     H210568   4.744   0.316   3.386 -0.4093 -1.1619 -3.2539
 3453WAT      O10569   1.459   3.413   3.094 -0.1111  0.3991  0.4477
 3453WAT     H110570   1.417   3.327   3.090 -2.2412  1.3819  0.3875
 3453WAT     H210571   1.414   3.458   3.166  1.1453  1.3774  0.6511
 3454WAT      O10572   0.712   1.267   0.826 -0.3864 -0.2878  0.1569
 3454WAT     H110573   0.761   1.209   0.885 -0.3330  1.6242  2.1118
 3454WAT     H210574   0.653   1.209   0.778  0.6365 -2.0996  1.0040
 3455WAT      O10575   1.432   1.999   3.360 -0.3259  0.2410 -0.0078
 3455WAT     H110576   1.517   2.008   3.403 -0.0616 -3.1150  0.4199
 3455WAT     H210577   1.449   2.018   3.268  0.6329  0.6754  0.2495
 3456WAT      O10578   1.580   2.951   3.478  0.7295 -0.0234 -0.2566
 3456WAT     H110579   1.602   2.966   3.387 -0.8115 -0.3207 -0.7071
 3456WAT     H210580   1.517   2.879   3.476  0.6585 -0.0283  1.0393
 3457WAT      O10581   2.658   4.302   3.000 -0.0729 -0.2535 -0.1174
 3457WAT     H110582   2.615   4.313   3.085 -1.0034 -0.3036 -0.5634
 3457WAT     H210583   2.751   4.294   3.021 -0.2681 -0.0884  0.8794
 3458WAT      O10584   3.758   4.101   3.288  0.7676 -0.8543 -0.0323
 3458WAT     H110585   3.808   4.182   3.291  2.7316 -2.0348  1.1280
 3458WAT     H210586   3.728   4.087   3.378 -1.2922 -0.4449 -0.6008
 3459WAT      O10587   0.775   1.147   2.950  0.2270  0.1518 -0.5968
 3459WAT     H110588   0.720   1.222   2.929  0.8401  0.4491 -1.1880
 3459WAT     H210589   0.739   1.112   3.031 -0.8787  0.2819 -1.0146
 3460WAT      O10590   0.208   0.657   3.373 -0.1345  0.1281 -0.5473
 3460WAT     H110591   0.285   0.599   3.372 -0.0137  0.2686 -2.2967
 3460WAT     H210592   0.231   0.728   3.314 -0.7700  1.3645  0.6399
 3461WAT      O10593   0.067   5.396   2.379  0.8505 -0.8536 -0.6128
 3461WAT     H110594   0.017   5.428   2.454  1.3556  0.8676 -0.9667
 3461WAT     H210595   0.032   5.309   2.362 -0.5183 -0.5435  0.4841
 3462WAT      O10596   0.642   2.757   3.664  0.2891  0.2096 -0.1974
 3462WAT     H110597   0.676   2.676   3.628 -0.2625  0.1909 -0.6906
 3462WAT     H210598   0.690   2.769   3.747  0.8573 -0.2550 -0.4532
 3463WAT      O10599   4.748   3.497   3.257 -0.2338 -0.3476 -0.0701
 3463WAT     H110600   4.761   3.482   3.350 -1.1751  0.5827  0.2400
 3463WAT     H210601   4.756   3.592   3.246 -1.6459 -0.2645 -0.6513
 3464WAT      O10602   0.182   3.381   2.544  0.8838  0.0596 -0.3248
 3464WAT     H110603   0.160   3.288   2.535 -0.0983  0.2546 -0.0906
 3464WAT     H210604   0.098   3.423   2.565  1.1934  1.0970 -1.1038
 3465WAT      O10605   4.904   0.621   3.289  0.0831  0.2060 -0.1151
 3465WAT     H110606   4.997   0.603   3.303  0.4571  0.0568 -2.3314
 3465WAT     H210607   4.862   0.534   3.293  0.1367  0.1942  0.2149
 3466WAT      O10608   4.928   2.428   1.897 -0.5594 -0.4161 -0.0365
 3466WAT     H110609   4.846   2.424   1.848 -0.3411 -0.6169 -0.3833
 3466WAT     H210610   4.901   2.425   1.989 -0.9590 -0.1689 -0.1451
 3467WAT      O10611   0.474   3.402   5.293  0.4970  0.5638 -0.1746
 3467WAT     H110612   0.513   3.341   5.355 -1.7454  0.0065  0.7884
 3467WAT     H210613   0.449   3.347   5.218 -1.0756  0.3209  0.4857
 3468WAT      O10614   1.784   4.176   1.167  0.0303 -0.4795 -0.4117
 3468WAT     H110615   1.791   4.150   1.258  0.6197 -0.5872 -0.4845
 3468WAT     H210616   1.701   4.224   1.162 -0.2029 -0.8278  0.0874
 3469WAT      O10617   2.784   3.177   5.165 -0.1105  0.2732  0.3745
 3469WAT     H110618   2.726   3.111   5.125  0.8622  0.1710 -0.9252
 3469WAT     H210619   2.735   3.259   5.157 -0.5186  0.0221  0.2355
 3470WAT      O10620   0.648   4.015   1.687 -0.6881 -0.2785 -0.1726
 3470WAT     H110621   0.709   4.060   1.628 -0.4327  0.9683  0.9758
 3470WAT     H210622   0.579   3.982   1.630 -1.6618  2.8541 -1.0056
 3471WAT      O10623   0.595   2.628   0.303  0.2110  0.5103 -0.2778
 3471WAT     H110624   0.555   2.682   0.235  0.0486  0.0253 -0.5747
 3471WAT     H210625   0.564   2.539   0.284 -0.8419  0.5234  1.1552
 3472WAT      O10626   1.346   5.542   2.156  1.1261  0.1353 -0.1544
 3472WAT     H110627   1.361   5.533   2.062  0.1269  0.7220 -0.3814
 3472WAT     H210628   1.252   5.532   2.167  1.2171  0.2099  0.7701
 3473WAT      O10629   3.953   3.142   0.254  0.0607 -0.0753 -0.0376
 3473WAT     H110630   3.956   3.236   0.234 -0.0664  0.0209  0.3779
 3473WAT     H210631   4.032   3.106   0.215  0.7558  0.4227  0.8822
 3474WAT      O10632   1.083   0.490   2.245 -1.0191 -0.4563  0.4619
 3474WAT     H110633   1.110   0.431   2.174  0.7739  0.5229  0.2774
 3474WAT     H210634   1.028   0.556   2.202 -1.0905 -0.6587  0.2420
 3475WAT      O10635   0.176   1.621   5.552  0.1636 -0.4878 -0.1740
 3475WAT     H110636   0.148   1.541   5.598 -0.3698 -1.3198 -1.8718
 3475WAT     H210637   0.223   1.589   5.476 -0.8042  0.7861 -1.3498
 3476WAT      O10638   3.428   3.412   5.505  0.7525 -0.0303 -0.3043
 3476WAT     H110639   3.362   3.480   5.490  0.3818 -0.3563 -0.1863
 3476WAT     H210640   3.379   3.330   5.495  1.0597 -0.2710  0.1665
 3477WAT      O10641   1.251   1.900   0.621 -0.4249 -0.0130  0.5379
 3477WAT     H110642   1.195   1.970   0.656  0.3950  0.5534  0.7402
 3477WAT     H210643   1.333   1.944   0.598 -0.1677 -0.7749 -0.0501
 3478WAT      O10644   3.461   1.841   1.543  0.4553 -0.1384  0.5837
 3478WAT     H110645   3.382   1.859   1.492  0.4690  0.6808  0.8485
 3478WAT     H210646   3.458   1.746   1.559  0.0599 -0.2841 -0.2750
 3479WAT      O10647   1.022   3.191   5.221 -0.0039  0.3168  0.5015
 3479WAT     H110648   1.077   3.239   5.159 -1.3678  1.9781  0.5085
 3479WAT     H210649   0.959   3.255   5.252  0.1272 -0.6796  3.0368
 3480WAT      O10650   1.130   2.903   3.820 -0.1416 -0.2025  0.5174
 3480WAT     H110651   1.124   2.859   3.735 -0.8028 -0.6248  0.7819
 3480WAT     H210652   1.197   2.971   3.807  0.3090 -0.7565 -0.1211
 3481WAT      O10653   1.597   3.036   0.249  0.0020  0.5264 -0.2973
 3481WAT     H110654   1.610   3.123   0.288 -0.9270 -0.1199  1.6091
 3481WAT     H210655   1.661   3.032   0.178 -0.3753  2.9970 -0.8867
 3482WAT      O10656   1.570   1.312   1.687  0.7492 -0.0331 -0.2280
 3482WAT     H110657   1.551   1.303   1.781 -1.4657  0.8180 -0.5347
 3482WAT     H210658   1.508   1.253   1.645  0.9379  0.4587 -1.2112
 3483WAT      O10659   3.392   1.074   2.531 -0.1221 -0.4271  0.1718
 3483WAT     H110660   3.410   1.108   2.618 -1.3343  0.3688  0.1441
 3483WAT     H210661   3.478   1.068   2.489  0.6053 -1.9059  1.7701
 3484WAT      O10662   1.210   3.821   2.870  0.6101 -0.1592  0.3361
 3484WAT     H110663   1.305   3.824   2.856  0.8479 -0.0195  1.8534
 3484WAT     H210664   1.184   3.738   2.830  1.1840  0.2578 -0.9920
 3485WAT      O10665   2.278   0.321   1.655  0.3684 -0.5212  0.3738
 3485WAT     H110666   2.312   0.308   1.567  0.7301 -2.7188  0.7916
 3485WAT     H210667   2.200   0.265   1.659  0.0362 -0.0200  1.2936
 3486WAT      O10668   3.206   3.572   5.104  0.2054 -0.2973  0.6856
 3486WAT     H110669   3.232   3.607   5.019 -0.0714  2.2056  1.5342
 3486WAT     H210670   3.115   3.543   5.091 -0.1709  0.9679  0.3168
 3487WAT      O10671   1.750   2.007   1.871 -0.0244  0.3187 -0.1030
 3487WAT     H110672   1.773   2.089   1.829 -0.8665  0.6230  0.0054
 3487WAT     H210673   1.670   2.027   1.921  1.6121  0.3340  2.7224
 3488WAT      O10674   0.537   4.670   4.226  0.4785  0.2706 -0.2567
 3488WAT     H110675   0.470   4.632   4.283  0.5853 -0.4521 -0.5952
 3488WAT     H210676   0.615   4.676   4.282  0.7494 -0.9813 -0.4565
 3489WAT      O10677   1.299   1.469   0.846 -0.1638 -0.3487 -0.4116
 3489WAT     H110678   1.307   1.381   0.883  0.7198 -0.9136 -1.8494
 3489WAT     H210679   1.231   1.510   0.898 -0.6797 -1.9200  0.2350
 3490WAT      O10680   1.117   3.141   4.382  0.1344  0.1339  0.0991
 3490WAT     H110681   1.195   3.119   4.433 -0.0576 -0.4541  0.1546
 3490WAT     H210682   1.147   3.140   4.291  0.4628  1.1225  0.1927
 3491WAT      O10683   0.334   4.853   4.022 -0.0600  0.4007  0.1840
 3491WAT     H110684   0.386   4.784   4.063 -0.7930  0.5886  1.4952
 3491WAT     H210685   0.243   4.829   4.042 -0.3309  1.6955  0.6153
 3492WAT      O10686   0.975   2.993   1.533  0.0357  0.5455  0.1921
 3492WAT     H110687   0.999   3.058   1.599  2.3874 -1.5842  1.6151
 3492WAT     H210688   1.047   2.996   1.470 -0.4478  0.1508 -0.3856
 3493WAT      O10689   4.018   3.498   0.307 -0.0754 -0.2621  0.1347
 3493WAT     H110690   3.932   3.477   0.345 -0.6799  0.6183 -0.7248
 3493WAT     H210691   4.037   3.586   0.338  0.2174 -0.1991 -0.2196
 3494WAT      O10692   2.479   2.829   0.350  0.0110 -0.2341  1.2057
 3494WAT     H110693   2.435   2.767   0.408 -0.9732 -1.7703 -1.0805
 3494WAT     H210694   2.414   2.852   0.284  2.1357 -1.6351 -1.6049
 3495WAT      O10695   1.949   4.131   1.795 -0.4335  0.1426 -0.2363
 3495WAT     H110696   1.969   4.041   1.818 -0.4311 -0.5773 -2.7330
 3495WAT     H210697   1.854   4.139   1.808 -0.0696  0.7343  2.7215
 3496WAT      O10698   0.442   3.663   5.354  0.5263 -0.7120  0.4730
 3496WAT     H110699   0.512   3.690   5.414 -1.7092 -0.2448  3.1120
 3496WAT     H210700   0.466   3.574   5.328  3.8477  0.6320 -1.7082
 3497WAT      O10701   2.698   3.301   4.805 -0.6630  0.2268 -0.3229
 3497WAT     H110702   2.635   3.284   4.735 -2.0874  0.7074  0.7853
 3497WAT     H210703   2.764   3.232   4.796 -2.1589 -1.2171 -0.6251
 3498WAT      O10704   3.820   3.469   2.029 -0.2018 -0.3874 -0.1147
 3498WAT     H110705   3.839   3.377   2.046  1.5589 -0.0824 -0.2330
 3498WAT     H210706   3.900   3.515   2.053 -1.3580  1.2510  0.8677
 3499WAT      O10707   2.882   1.521   0.350  0.2047 -0.6365 -0.2089
 3499WAT     H110708   2.950   1.587   0.365 -0.4459  0.5024 -1.8378
 3499WAT     H210709   2.820   1.534   0.421 -0.0995  0.8397 -0.6883
 3500WAT      O10710   0.228   1.112   3.459 -0.1209  0.1017  0.2340
 3500WAT     H110711   0.152   1.148   3.412 -0.3101  0.0760  0.5123
 3500WAT     H210712   0.192   1.037   3.508  0.2119 -0.2880 -0.1147
 3501WAT      O10713   4.635   3.603   5.118 -0.2109  0.0427  0.1540
 3501WAT     H110714   4.607   3.691   5.093 -1.2543  0.4387  2.4339
 3501WAT     H210715   4.719   3.616   5.162 -0.4322 -0.0719  0.6169
 3502WAT      O10716   4.015   2.550   0.771  0.0068 -0.3119 -0.2007
 3502WAT     H110717   3.973   2.622   0.817  0.1567 -0.5926  0.3830
 3502WAT     H210718   3.951   2.479   0.772  0.3324 -0.6008  0.3238
 3503WAT      O10719   0.817   5.082   1.830 -0.8058 -0.0027 -0.0657
 3503WAT     H110720   0.829   5.052   1.920  0.1948 -1.6741 -0.7095
 3503WAT     H210721   0.888   5.041   1.781 -1.8984  0.0563 -1.7976
 3504WAT      O10722   1.997   1.115   4.596 -0.4782  0.5679 -0.4670
 3504WAT     H110723   2.028   1.026   4.582  0.3346  0.4534  1.6231
 3504WAT     H210724   1.903   1.107   4.608 -0.2323 -0.2666  1.1800
 3505WAT      O10725   3.165   3.458   4.353 -0.1357 -0.5566  0.0962
 3505WAT     H110726   3.210   3.539   4.330 -0.3514 -0.3990  0.2214
 3505WAT     H210727   3.077   3.467   4.316  0.3101 -1.3859 -1.2092
 3506WAT      O10728   1.797   3.655   1.844  0.0625  0.5215  0.4514
 3506WAT     H110729   1.779   3.572   1.800 -0.0706  0.2365  1.0361
 3506WAT     H210730   1.713   3.700   1.846 -0.1183  0.1621  1.1753
 3507WAT      O10731   2.783   3.726   5.485 -0.1527 -0.1678  0.0786
 3507WAT     H110732   2.816   3.783   5.416  2.8711 -0.1603  1.3530
 3507WAT     H210733   2.782   3.781   5.563 -4.6418  0.1690  0.0212
 3508WAT      O10734   0.199   3.223   4.078 -0.2065 -0.0865 -0.0511
 3508WAT     H110735   0.247   3.297   4.115 -0.2897 -0.0377 -0.0402
 3508WAT     H210736   0.144   3.192   4.150  0.4196 -0.6647  0.1878
 3509WAT      O10737   4.738   3.793   0.816 -0.2422  0.6378  0.3438
 3509WAT     H110738   4.771   3.881   0.835 -1.2678  1.7414 -2.4360
 3509WAT     H210739   4.800   3.757   0.753 -1.0888  0.3575 -0.3540
 3510WAT      O10740   2.125   4.471   0.887  0.7178  0.0846  0.4145
 3510WAT     H110741   2.126   4.435   0.798 -1.3717  1.4774 -0.2420
 3510WAT     H210742   2.175   4.552   0.881  0.1496  0.4312  0.4014
 3511WAT      O10743   1.527   5.215   1.904 -0.1109  0.3317 -0.0953
 3511WAT     H110744   1.606   5.162   1.896 -0.2406  0.0900  0.1975
 3511WAT     H210745   1.456   5.155   1.880 -0.4052 -0.0841  1.6957
 3512WAT      O10746   0.234   2.034   2.165 -0.1231 -0.7756  0.2932
 3512WAT     H110747   0.188   2.002   2.243 -1.9000  1.0011  0.0446
 3512WAT     H210748   0.195   2.119   2.148  0.4878 -0.9475 -2.3410
 3513WAT      O10749   0.275   4.570   3.964 -0.2789 -0.1310  0.0062
 3513WAT     H110750   0.204   4.555   3.902 -1.2642  1.2354  0.7414
 3513WAT     H210751   0.231   4.603   4.043  1.2188  1.5275  0.2138
 3514WAT      O10752   0.687   0.847   1.322  0.1085 -0.0977 -0.3236
 3514WAT     H110753   0.596   0.858   1.293 -0.7877 -1.2636  1.8087
 3514WAT     H210754   0.681   0.839   1.417  2.5184  0.2658 -0.0771
 3515WAT      O10755   1.219   1.798   2.247 -0.1361 -0.2905 -0.0337
 3515WAT     H110756   1.145   1.737   2.248 -0.2527 -0.2252 -1.6056
 3515WAT     H210757   1.277   1.762   2.180  0.5677  0.4487  0.1777
 3516WAT      O10758   3.665   3.908   0.633 -0.8641 -0.5549 -0.2538
 3516WAT     H110759   3.708   3.986   0.669  0.2933 -2.4700  3.0228
 3516WAT     H210760   3.723   3.880   0.562  1.6287 -1.1212  1.8219
 3517WAT      O10761   2.654   2.515   5.422  0.3017  0.6740  0.1680
 3517WAT     H110762   2.737   2.525   5.468 -0.0442  0.4764  0.8466
 3517WAT     H210763   2.669   2.557   5.337  1.5350 -0.5570 -0.2640
 3518WAT      O10764   0.325   3.677   1.656 -0.0347 -0.1695  0.0879
 3518WAT     H110765   0.235   3.656   1.677  0.8896 -3.2200  1.5482
 3518WAT     H210766   0.354   3.604   1.601  1.8517  0.0911  0.6662
 3519WAT      O10767   2.358   2.128   5.231  0.2635  0.0388 -0.0627
 3519WAT     H110768   2.301   2.104   5.157  1.9030 -2.8302 -0.5763
 3519WAT     H210769   2.446   2.112   5.198  1.1016 -0.3450  2.2057
 3520WAT      O10770   3.366   1.770   1.198  0.2400  0.5574  0.5485
 3520WAT     H110771   3.321   1.778   1.282 -1.7258  0.6274 -0.4557
 3520WAT     H210772   3.303   1.725   1.141  0.8456  1.9575 -1.3414
 3521WAT      O10773   1.532   2.456   1.365 -0.1455  0.0196 -0.5206
 3521WAT     H110774   1.601   2.417   1.418 -1.3425 -0.4430  0.7704
 3521WAT     H210775   1.538   2.411   1.280 -0.2687 -1.6304  0.3116
 3522WAT      O10776   2.348   3.156   1.798 -0.6644 -0.4059 -0.2045
 3522WAT     H110777   2.440   3.145   1.820  0.0103  2.4385 -1.1437
 3522WAT     H210778   2.348   3.179   1.705 -2.0226  2.1336  0.3326
 3523WAT      O10779   2.442   3.675   1.519  0.3474  0.0577 -0.0621
 3523WAT     H110780   2.363   3.717   1.485  1.1338  0.8468 -0.9778
 3523WAT     H210781   2.490   3.746   1.562  1.0580 -0.1848 -0.4433
 3524WAT      O10782   4.770   4.406   1.339 -0.0292 -0.9172 -0.5360
 3524WAT     H110783   4.746   4.485   1.387 -0.0006  0.6616 -2.9516
 3524WAT     H210784   4.836   4.364   1.394  0.0690  0.8036  0.7473
 3525WAT      O10785   2.093   1.990   2.778 -0.6124 -0.2340 -0.5710
 3525WAT     H110786   2.160   2.049   2.742  0.4739 -0.3979  1.0785
 3525WAT     H210787   2.034   2.048   2.826 -1.0386 -0.2263 -1.0866
 3526WAT      O10788   1.981   1.738   1.438 -0.0299  0.0822 -0.4512
 3526WAT     H110789   2.074   1.716   1.443  0.3229  1.6966  0.9987
 3526WAT     H210790   1.945   1.674   1.376  2.1845 -0.0522 -1.7062
 3527WAT      O10791   3.202   4.899   1.546  0.1668  0.1213  0.2409
 3527WAT     H110792   3.136   4.928   1.608 -0.6041 -0.8985 -0.0719
 3527WAT     H210793   3.286   4.912   1.591 -0.2687  1.0873  0.7796
 3528WAT      O10794   2.565   3.965   1.826 -0.2278  0.8238  0.0218
 3528WAT     H110795   2.585   3.904   1.755 -1.3598  0.7313 -0.2360
 3528WAT     H210796   2.473   3.989   1.812 -0.5640  0.5960  1.5831
 3529WAT      O10797   1.628   4.018   2.367  0.0817  0.0346 -0.2836
 3529WAT     H110798   1.611   4.021   2.461  0.6992  0.4042 -0.1787
 3529WAT     H210799   1.715   3.979   2.359  0.9640  1.9765 -0.5705
 3530WAT      O10800   1.479   3.302   4.810 -0.0039 -0.3837  0.6531
 3530WAT     H110801   1.426   3.310   4.730 -1.5351 -1.2525  1.5235
 3530WAT     H210802   1.564   3.337   4.786 -0.9722  1.1392 -0.8136
 3531WAT      O10803   0.205   1.693   2.802  0.0928 -0.3880 -0.6410
 3531WAT     H110804   0.144   1.702   2.876 -0.6150 -0.3164 -1.2267
 3531WAT     H210805   0.202   1.779   2.759 -1.9441 -1.3528 -2.6118
 3532WAT      O10806   2.958   3.554   0.842  0.0509 -0.2595 -0.6639
 3532WAT     H110807   3.019   3.603   0.787  0.2805  0.8902  0.5445
 3532WAT     H210808   2.978   3.583   0.931 -1.0042 -1.2711 -0.0689
 3533WAT      O10809   0.889   3.760   0.667  0.5336 -0.3276 -0.2673
 3533WAT     H110810   0.893   3.786   0.575  0.0295  0.3407 -0.1054
 3533WAT     H210811   0.967   3.706   0.680  0.8496 -0.0470 -0.9665
 3534WAT      O10812   1.367   2.135   0.893 -0.3727  0.2508 -0.5196
 3534WAT     H110813   1.397   2.207   0.948  0.0411 -1.3888  1.5554
 3534WAT     H210814   1.283   2.110   0.931  0.4604 -1.6684  0.1506
 3535WAT      O10815   0.903   4.178   3.932  0.1394  0.1759  0.3125
 3535WAT     H110816   0.943   4.264   3.941  0.1998  0.1202  0.5722
 3535WAT     H210817   0.976   4.120   3.907  0.6413 -0.3239  2.7338
 3536WAT      O10818   2.091   1.226   4.372 -0.2895  0.5085 -0.5529
 3536WAT     H110819   2.156   1.169   4.331 -1.2583  0.4872 -2.1711
 3536WAT     H210820   2.074   1.186   4.457  0.8840 -0.1773 -0.6182
 3537WAT      O10821   0.621   2.778   1.803  0.3534  0.0240 -0.7901
 3537WAT     H110822   0.575   2.760   1.885  3.0687  2.1801  1.4131
 3537WAT     H210823   0.573   2.851   1.764 -0.1031 -0.0457 -0.3748
 3538WAT      O10824   4.025   1.780   4.769 -0.2260  0.2471 -0.4029
 3538WAT     H110825   4.004   1.732   4.689 -2.1695  0.8712 -0.3254
 3538WAT     H210826   3.991   1.868   4.753 -1.2621  0.1996  1.3316
 3539WAT      O10827   0.151   2.299   2.078  0.3429 -0.4818  0.2404
 3539WAT     H110828   0.127   2.370   2.137  0.5262  1.2149 -1.6026
 3539WAT     H210829   0.092   2.310   2.003  1.0352 -1.6742 -0.5073
 3540WAT      O10830   3.279   2.977   1.140  0.5017 -0.2972  0.1036
 3540WAT     H110831   3.311   2.891   1.170  0.9970 -0.0441  0.3150
 3540WAT     H210832   3.349   3.038   1.165  0.5973  0.0285 -0.9423
 3541WAT      O10833   0.907   3.331   1.377 -0.2480  0.1057 -0.1640
 3541WAT     H110834   0.922   3.315   1.284  0.1525 -0.6745  0.0221
 3541WAT     H210835   0.987   3.375   1.407 -0.3648  0.3313 -0.1865
 3542WAT      O10836   2.740   4.417   0.881  0.4295 -0.3540 -0.2232
 3542WAT     H110837   2.657   4.451   0.846 -0.4663 -1.5993  0.5937
 3542WAT     H210838   2.735   4.322   0.865  1.1713 -0.5936  0.8742
 3543WAT      O10839   1.045   4.579   0.944 -0.1297 -0.2309  0.3678
 3543WAT     H110840   1.049   4.630   0.863  0.0788 -1.3749 -0.3614
 3543WAT     H210841   1.011   4.494   0.917 -0.0475 -0.6372  1.4866
 3544WAT      O10842   3.938   3.544   0.669 -0.1059  0.0841  0.8028
 3544WAT     H110843   3.860   3.529   0.615 -0.7957 -1.6447  2.1862
 3544WAT     H210844   3.950   3.639   0.667 -1.0499  0.2150 -1.0446
 3545WAT      O10845   4.562   1.488   1.388  0.1188 -1.0719  0.2574
 3545WAT     H110846   4.524   1.483   1.476 -1.9494 -1.9742 -0.6376
 3545WAT     H210847   4.515   1.560   1.346 -0.5057 -2.0680 -0.8031
 3546WAT      O10848   0.391   3.315   0.204  0.0725  0.2500  0.4565
 3546WAT     H110849   0.328   3.382   0.230 -0.3056 -0.2014  0.7030
 3546WAT     H210850   0.357   3.282   0.120  0.2220  0.3147  0.3693
 3547WAT      O10851   0.913   2.734   3.867 -0.7113 -0.0512  0.0387
 3547WAT     H110852   0.983   2.798   3.853 -0.2099 -0.2220  1.6524
 3547WAT     H210853   0.955   2.649   3.855 -0.6967 -0.1499  0.7837
 3548WAT      O10854   0.907   4.278   1.168  0.1139  0.4223 -0.1896
 3548WAT     H110855   0.911   4.279   1.072 -1.8746  1.1654 -0.3064
 3548WAT     H210856   0.998   4.289   1.195  0.4378  3.6960 -2.0038
 3549WAT      O10857   1.243   4.273   1.482  0.4013 -0.0076 -0.3097
 3549WAT     H110858   1.335   4.251   1.499  0.4346  0.4731  0.1451
 3549WAT     H210859   1.199   4.259   1.565  0.6806  2.9655  0.4570
 3550WAT      O10860   4.859   4.673   1.959 -0.5927 -0.4161  0.8466
 3550WAT     H110861   4.771   4.706   1.941 -0.1997  0.4504  0.4640
 3550WAT     H210862   4.901   4.671   1.873 -0.2955 -1.0209  0.9981
 3551WAT      O10863   2.429   4.799   2.836 -0.2515  0.4282  0.6260
 3551WAT     H110864   2.495   4.859   2.871  1.0585 -0.5772 -0.0634
 3551WAT     H210865   2.478   4.721   2.809 -1.7100 -0.3356  0.0430
 3552WAT      O10866   0.254   3.913   5.669  0.3023 -0.4285  0.6762
 3552WAT     H110867   0.220   3.860   5.741  1.1473 -0.8510  0.7809
 3552WAT     H210868   0.182   3.917   5.606  0.1499 -1.5525  0.7496
 3553WAT      O10869   0.598   3.370   1.155 -0.0737 -0.2225 -0.5142
 3553WAT     H110870   0.632   3.409   1.236 -2.0650 -2.4073  1.5504
 3553WAT     H210871   0.647   3.288   1.147 -0.4757 -0.4152 -1.0289
 3554WAT      O10872   2.986   2.621   2.639  0.0265  0.1649  0.2273
 3554WAT     H110873   2.917   2.662   2.587  0.9560  2.1687  0.4471
 3554WAT     H210874   2.969   2.650   2.728  0.5604 -0.1483  0.4361
 3555WAT      O10875   1.396   5.621   1.232  0.0552  0.1191 -0.0353
 3555WAT     H110876   1.407   5.619   1.327  0.4298  3.8621  0.1453
 3555WAT     H210877   1.484   5.613   1.197  0.3677  2.0992  0.1699
 3556WAT      O10878   4.184   3.903   2.020 -0.8730 -0.1615 -0.3582
 3556WAT     H110879   4.094   3.936   2.027 -0.4304  1.2567 -0.8451
 3556WAT     H210880   4.192   3.839   2.090 -2.0103  0.3150  0.2412
 3557WAT      O10881   3.776   1.834   1.149  0.2827 -0.4203  0.4536
 3557WAT     H110882   3.840   1.820   1.219 -0.4990  1.1730  1.5379
 3557WAT     H210883   3.829   1.842   1.069  1.2918 -0.9424  1.0539
 3558WAT      O10884   2.840   1.669   5.749  0.0541 -0.3049  0.4134
 3558WAT     H110885   2.908   1.622   5.797  2.5851  0.4752 -2.1463
 3558WAT     H210886   2.859   1.762   5.765 -0.2668 -0.0731 -0.5143
 3559WAT      O10887   0.385   2.247   2.767 -0.4954 -0.2148 -0.0919
 3559WAT     H110888   0.461   2.304   2.779 -0.9919  0.2379  1.0370
 3559WAT     H210889   0.379   2.235   2.672 -1.0320  2.5647 -0.5144
 3560WAT      O10890   4.809   0.914   0.584 -0.4323 -0.0631  0.6364
 3560WAT     H110891   4.760   0.833   0.570 -0.7326  0.0703  0.9177
 3560WAT     H210892   4.897   0.884   0.607 -0.7957 -0.3350  1.7398
 3561WAT      O10893   0.316   2.121   0.074 -0.0231  0.0335  0.2902
 3561WAT     H110894   0.358   2.134  -0.011 -1.5245 -1.2521 -0.7030
 3561WAT     H210895   0.242   2.183   0.074 -0.1825 -0.1557  0.5469
 3562WAT      O10896   0.856   1.671   5.606 -0.6837  0.0029  0.2932
 3562WAT     H110897   0.934   1.633   5.565 -0.5140  0.1568  0.4649
 3562WAT     H210898   0.833   1.610   5.676 -1.7909 -0.9650 -0.8835
 3563WAT      O10899   3.593   4.773   2.607  0.1014 -0.2766 -0.3507
 3563WAT     H110900   3.565   4.794   2.696  1.5756 -1.1585  0.3623
 3563WAT     H210901   3.638   4.852   2.577 -1.0718  0.3026 -0.6303
 3564WAT      O10902   1.917   4.113   0.770  0.3497 -0.2466 -0.3950
 3564WAT     H110903   1.878   4.062   0.699 -1.3533 -0.5378  0.6867
 3564WAT     H210904   1.870   4.085   0.849  0.0154  2.2600  0.4072
 3565WAT      O10905   4.603   3.876   3.947 -0.1274 -0.3002  0.0713
 3565WAT     H110906   4.690   3.873   3.909  0.8377  1.0239  2.0262
 3565WAT     H210907   4.604   3.806   4.013 -0.2961  0.1761  0.5813
 3566WAT      O10908   0.236   2.324   3.714  0.0248  0.0373  0.0523
 3566WAT     H110909   0.158   2.376   3.737 -0.2053 -0.0863 -0.4295
 3566WAT     H210910   0.273   2.298   3.798 -0.1325  0.5762  0.2964
 3567WAT      O10911   0.178   0.623   1.426 -0.1722  0.3358  0.1717
 3567WAT     H110912   0.182   0.559   1.497 -0.8737 -0.4577 -0.4898
 3567WAT     H210913   0.089   0.658   1.431 -0.3143  0.0722 -0.4893
 3568WAT      O10914   2.074   3.513   2.363 -0.2903  0.5414  0.0422
 3568WAT     H110915   1.982   3.541   2.367 -0.9765 -1.1204 -2.0653
 3568WAT     H210916   2.084   3.476   2.276  2.1654 -0.1668  0.5441
 3569WAT      O10917   3.649   2.802   4.416  0.0986 -0.3629 -0.4375
 3569WAT     H110918   3.657   2.867   4.346 -1.3725 -0.8098 -1.0822
 3569WAT     H210919   3.613   2.725   4.372  0.2787 -1.0665  0.6077
 3570WAT      O10920   0.793   3.368   1.797  0.0510 -0.3057  0.2543
 3570WAT     H110921   0.806   3.395   1.888  0.1432  0.9877 -0.1241
 3570WAT     H210922   0.815   3.446   1.745 -2.3504 -0.2113 -0.7710
 3571WAT      O10923   4.640   3.725   3.033  0.3176  0.0888 -0.2829
 3571WAT     H110924   4.648   3.761   3.121 -0.3950 -2.4212  0.9055
 3571WAT     H210925   4.728   3.697   3.010  0.2444 -0.6207  0.2847
 3572WAT      O10926   2.739   2.373   0.722  0.3466  0.1389  0.3174
 3572WAT     H110927   2.806   2.304   0.726  0.0374 -0.2616 -0.9701
 3572WAT     H210928   2.789   2.454   0.716  0.7170 -0.0832  0.3541
 3573WAT      O10929   2.037   3.155   0.359  0.0220  0.6136  0.0759
 3573WAT     H110930   2.070   3.142   0.447 -0.7451 -0.1230  0.2674
 3573WAT     H210931   1.942   3.139   0.366  0.0974 -0.4679 -1.0681
 3574WAT      O10932   4.508   2.611   3.938 -1.0703  0.6392 -0.2856
 3574WAT     H110933   4.453   2.590   3.863  0.3136  1.0218 -1.4440
 3574WAT     H210934   4.501   2.535   3.995 -0.9875 -0.3057 -1.5064
 3575WAT      O10935   1.959   4.659   2.589  0.0312 -0.0783 -0.5901
 3575WAT     H110936   2.022   4.706   2.645  0.0268 -0.1647 -0.5123
 3575WAT     H210937   1.926   4.726   2.529 -1.3826  0.4797  0.7429
 3576WAT      O10938   2.159   3.115   2.251  0.3055  0.3800 -0.1758
 3576WAT     H110939   2.150   3.020   2.255  0.2620  0.3491 -0.8474
 3576WAT     H210940   2.090   3.143   2.190 -0.6072  0.9897  1.0771
 3577WAT      O10941   1.298   3.259   5.842  0.4772  0.3188  0.1054
 3577WAT     H110942   1.304   3.239   5.749 -0.1011  1.0607 -0.0948
 3577WAT     H210943   1.266   3.177   5.882 -1.0181  0.5375 -0.5914
 3578WAT      O10944   0.935   3.592   5.681  0.3370 -0.2690 -0.5838
 3578WAT     H110945   0.886   3.520   5.720  0.9015 -0.1019  0.4822
 3578WAT     H210946   1.013   3.600   5.736  0.0597  1.4571 -0.3892
 3579WAT      O10947   4.421   0.963   1.103 -0.2773  0.0549 -0.2438
 3579WAT     H110948   4.444   0.942   1.013 -1.2956  0.4189 -0.6108
 3579WAT     H210949   4.505   0.976   1.147  0.2801  2.6532 -1.8161
 3580WAT      O10950   3.292   5.276   1.283 -0.2069  0.2540  0.1491
 3580WAT     H110951   3.272   5.206   1.221 -1.9566  0.1057  0.8336
 3580WAT     H210952   3.270   5.357   1.236 -0.8165  0.1850  0.3143
 3581WAT      O10953   1.897   4.613   1.002 -0.0862 -0.0707  0.2161
 3581WAT     H110954   1.926   4.668   1.075 -0.9851 -0.2588  0.7220
 3581WAT     H210955   1.960   4.541   1.000  0.3957  0.3440  0.3063
 3582WAT      O10956   4.119   2.092   3.446 -0.0529 -0.5351  0.2605
 3582WAT     H110957   4.047   2.079   3.507 -1.0409 -1.2191 -1.0046
 3582WAT     H210958   4.131   2.186   3.440 -1.5414 -0.3646 -0.2820
 3583WAT      O10959   1.853   0.935   2.603 -0.1517  0.2008  0.1447
 3583WAT     H110960   1.779   0.932   2.662 -0.5065  1.2053 -0.2351
 3583WAT     H210961   1.814   0.936   2.515  0.1551  3.1495 -0.0523
 3584WAT      O10962   0.796   3.901   1.382  0.1290  0.1851 -0.0818
 3584WAT     H110963   0.827   3.977   1.431  2.1631  0.3254 -1.4252
 3584WAT     H210964   0.853   3.829   1.410  1.6612  0.3633 -2.3596
 3585WAT      O10965   4.681   1.952   2.970  0.2064  0.2084  0.2107
 3585WAT     H110966   4.676   1.857   2.961  0.0573  0.4117 -2.8761
 3585WAT     H210967   4.613   1.973   3.035 -0.3851 -1.6938  0.2782
 3586WAT      O10968   3.401   5.347   2.906 -0.0610 -0.1881 -0.0310
 3586WAT     H110969   3.404   5.443   2.912 -0.9792 -0.2164  1.3201
 3586WAT     H210970   3.493   5.320   2.904  0.2478  0.6466  1.4596
 3587WAT      O10971   3.111   1.895   4.384  0.0614  0.2122  0.4453
 3587WAT     H110972   3.035   1.883   4.441 -0.7870 -2.2247 -1.0367
 3587WAT     H210973   3.170   1.953   4.433 -2.7889  2.3812  1.5672
 3588WAT      O10974   2.281   3.957   4.345 -0.2461  0.3439 -0.0698
 3588WAT     H110975   2.289   3.872   4.389 -0.2035  1.2904  1.8300
 3588WAT     H210976   2.225   3.939   4.270 -0.8528 -1.2336  0.7082
 3589WAT      O10977   3.163   2.266   4.743 -0.0085 -0.4073 -0.3210
 3589WAT     H110978   3.255   2.286   4.728  0.0763 -0.1125  0.5673
 3589WAT     H210979   3.142   2.307   4.826 -1.3606  0.8748 -1.2429
 3590WAT      O10980   2.016   3.536   0.743 -0.2870  0.2262 -0.1452
 3590WAT     H110981   1.986   3.567   0.657  0.9459  0.1815 -0.6110
 3590WAT     H210982   2.025   3.615   0.795 -0.2227  0.3381 -0.3250
 3591WAT      O10983   4.888   3.862   3.884 -0.1696  0.3076 -0.0413
 3591WAT     H110984   4.900   3.843   3.791 -1.9750 -2.3203  0.1358
 3591WAT     H210985   4.969   3.833   3.925  0.1845  0.3847 -0.6649
 3592WAT      O10986   3.924   1.664   2.002  0.0015  0.0693  0.0293
 3592WAT     H110987   3.901   1.571   2.010  1.4758 -0.7133 -3.2590
 3592WAT     H210988   3.922   1.697   2.092 -0.6811 -3.1029  1.3000
 3593WAT      O10989   2.701   4.413   4.241 -0.7460  0.2320  0.0277
 3593WAT     H110990   2.628   4.456   4.286 -1.4305  1.3796 -2.0345
 3593WAT     H210991   2.701   4.451   4.153  0.2802 -2.1218 -1.0933
 3594WAT      O10992   0.643   0.256   1.793  0.6847  0.5600 -0.6724
 3594WAT     H110993   0.593   0.258   1.875 -0.3974 -0.6325 -1.2773
 3594WAT     H210994   0.673   0.166   1.785  0.5321  0.5855 -1.7258
 3595WAT      O10995   1.297   3.647   4.205  0.3645  0.4587 -0.0736
 3595WAT     H110996   1.249   3.716   4.158 -0.2912  1.9843  2.5825
 3595WAT     H210997   1.376   3.634   4.154  0.0669  2.5493 -1.2067
 3596WAT      O10998   4.809   1.597   1.826  0.7107  0.1749 -0.1560
 3596WAT     H110999   4.733   1.654   1.824  1.3511  1.1147  0.8233
 3596WAT     H211000   4.832   1.583   1.734  1.4820  2.8360 -0.4488
 3597WAT      O11001   3.785   2.318   0.606 -0.7810  0.2781 -0.4517
 3597WAT     H111002   3.805   2.334   0.513  0.3947  0.3997 -0.1938
 3597WAT     H211003   3.795   2.223   0.616  1.9690  0.5249  0.1296
 3598WAT      O11004   3.872   4.337   3.329  0.3281  0.0957  0.2229
 3598WAT     H111005   3.963   4.355   3.309 -0.1432  1.2005 -1.0677
 3598WAT     H211006   3.855   4.384   3.410  0.8085  0.1828  0.2736
 3599WAT      O11007   3.203   5.589   1.981  0.6668 -0.2340  0.4197
 3599WAT     H111008   3.220   5.507   1.936 -1.4180 -0.9551  0.8564
 3599WAT     H211009   3.267   5.591   2.052  1.1422 -1.1651  0.0263
 3600WAT      O11010   1.705   2.296   1.506  0.4368  0.0940 -0.6026
 3600WAT     H111011   1.638   2.232   1.528  1.5990 -0.7752  0.5569
 3600WAT     H211012   1.724   2.341   1.588  0.5253  1.0808 -1.1454
 3601WAT      O11013   2.174   2.712   5.460 -0.5138 -0.1731  0.1818
 3601WAT     H111014   2.158   2.740   5.551 -0.2189  1.4095 -0.2279
 3601WAT     H211015   2.179   2.793   5.411  1.5652 -0.8944 -0.9129
 3602WAT      O11016   1.046   1.375   2.610  0.0318  0.5051 -0.4532
 3602WAT     H111017   1.009   1.356   2.696 -0.1740 -0.7862 -0.8100
 3602WAT     H211018   1.069   1.468   2.614 -2.0000  1.0310  0.2390
 3603WAT      O11019   1.002   3.180   4.794  0.0242 -0.4527  0.5982
 3603WAT     H111020   0.938   3.204   4.862 -1.2446  0.5064 -0.8573
 3603WAT     H211021   1.079   3.234   4.813 -1.0619  1.3410  0.1504
 3604WAT      O11022   0.422   2.617   2.841  0.7336  0.1768  0.4407
 3604WAT     H111023   0.505   2.572   2.857  0.9152 -0.2552 -1.5102
 3604WAT     H211024   0.407   2.609   2.747 -1.6381  0.0431  0.7473
 3605WAT      O11025   1.714   3.459   4.665 -0.1414 -0.5265 -0.8553
 3605WAT     H111026   1.752   3.378   4.629 -1.0975 -1.8442  0.9440
 3605WAT     H211027   1.788   3.504   4.706  0.1726 -1.1610 -0.7073
 3606WAT      O11028   2.892   1.366   2.006 -0.0800 -0.6547 -0.5779
 3606WAT     H111029   2.810   1.317   2.004  0.1898 -1.3539  1.9178
 3606WAT     H211030   2.959   1.300   1.988  0.0828 -0.5795 -0.2546
 3607WAT      O11031   1.226   4.224   2.398 -0.7859  0.6019  0.1605
 3607WAT     H111032   1.312   4.200   2.362 -0.6386  2.4581 -0.8196
 3607WAT     H211033   1.186   4.140   2.420  0.7566 -0.3825 -0.5704
 3608WAT      O11034   3.677   3.261   5.139 -0.2898  0.1790 -0.1134
 3608WAT     H111035   3.614   3.331   5.159  0.4898  1.1892 -1.0830
 3608WAT     H211036   3.701   3.226   5.225 -2.7236 -0.7591  0.2476
 3609WAT      O11037   3.263   4.894   1.271  0.5150 -0.2132 -0.2741
 3609WAT     H111038   3.185   4.851   1.237 -0.0138  0.2266  0.3679
 3609WAT     H211039   3.251   4.894   1.366  2.0198 -1.5314 -0.0331
 3610WAT      O11040   0.513   2.591   2.007  0.6754 -0.0200  0.2031
 3610WAT     H111041   0.506   2.499   1.983 -0.2090  0.7748 -3.3187
 3610WAT     H211042   0.603   2.602   2.037  0.6850 -2.0425  1.0375
 3611WAT      O11043   4.774   2.385   2.117 -0.5215  0.4098  0.5760
 3611WAT     H111044   4.704   2.383   2.052 -1.3367 -0.3365  1.4349
 3611WAT     H211045   4.752   2.459   2.174 -0.3674  0.4419  0.5952
 3612WAT      O11046   0.948   3.810   4.344 -0.0216 -0.6167 -0.1424
 3612WAT     H111047   0.964   3.881   4.282 -3.5598 -0.0378 -0.6010
 3612WAT     H211048   0.972   3.846   4.429  0.0080  0.4442 -0.5848
 3613WAT      O11049   3.892   4.009   3.951 -0.3943 -0.0343 -0.0502
 3613WAT     H111050   3.906   3.952   4.027 -0.2042 -1.5980 -1.2246
 3613WAT     H211051   3.862   3.951   3.882  1.8427  0.9053 -1.9337
 3614WAT      O11052   1.360   1.554   4.183 -0.2368 -0.1549 -1.4700
 3614WAT     H111053   1.324   1.642   4.196  0.5062  0.2000 -1.6826
 3614WAT     H211054   1.377   1.549   4.089 -0.0376 -0.4279 -1.4215
 3615WAT      O11055   4.267   0.721   3.807 -0.0974  0.3462 -0.7899
 3615WAT     H111056   4.200   0.767   3.756 -0.7681  0.9227  0.5437
 3615WAT     H211057   4.311   0.791   3.856  0.6057 -0.1708 -0.6793
 3616WAT      O11058   2.254   3.897   4.798 -0.7353 -0.0345  0.0530
 3616WAT     H111059   2.182   3.892   4.861  1.6195  0.5070  3.0094
 3616WAT     H211060   2.290   3.808   4.796 -0.7037 -0.0152 -0.4729
 3617WAT      O11061   0.712   4.678   2.439 -0.3976 -0.1034  0.2976
 3617WAT     H111062   0.777   4.717   2.381 -1.5344  0.6115 -0.5660
 3617WAT     H211063   0.687   4.596   2.396 -2.1722  1.0272 -1.0078
 3618WAT      O11064   3.543   1.561   3.454  0.2986  0.0072 -0.0122
 3618WAT     H111065   3.498   1.478   3.474 -1.0084  0.8096  0.5128
 3618WAT     H211066   3.598   1.540   3.379 -1.8403 -0.7792 -1.4867
 3619WAT      O11067   2.624   1.970   4.465 -0.8171  0.4122 -0.1127
 3619WAT     H111068   2.673   1.929   4.394  0.1879  0.0345  0.7724
 3619WAT     H211069   2.678   2.045   4.491 -1.8054  1.2969 -0.5889
 3620WAT      O11070   0.362   2.469   2.235 -0.2489 -0.5244 -0.0495
 3620WAT     H111071   0.320   2.555   2.240 -1.0921 -0.8677 -0.8986
 3620WAT     H211072   0.311   2.422   2.169 -0.2297 -1.9204  0.8955
 3621WAT      O11073   4.899   1.427   4.514 -0.0923  0.3554  0.2441
 3621WAT     H111074   4.961   1.395   4.580  0.3049  0.0525 -0.2698
 3621WAT     H211075   4.820   1.375   4.529  0.4039 -0.5864 -0.2968
 3622WAT      O11076   1.376   0.421   3.031 -0.5619 -0.3527 -0.4880
 3622WAT     H111077   1.418   0.336   3.016 -1.6883 -0.9492 -0.3268
 3622WAT     H211078   1.320   0.406   3.107  0.2521  0.9179  0.3968
 3623WAT      O11079   1.442   0.684   2.628  0.0068 -0.7199 -0.8093
 3623WAT     H111080   1.518   0.703   2.573  2.2052 -1.9428  1.5930
 3623WAT     H211081   1.390   0.622   2.576  0.6310  0.0842 -2.4886
 3624WAT      O11082   0.334   4.819   2.908 -0.7349 -0.0234 -0.2173
 3624WAT     H111083   0.415   4.845   2.864 -0.7229 -1.9935 -1.4862
 3624WAT     H211084   0.355   4.824   3.001  0.8714 -0.5096 -0.5258
 3625WAT      O11085   0.906   1.535   0.026 -0.2082  0.3310  0.4217
 3625WAT     H111086   0.904   1.631   0.033 -1.3613  0.5548 -2.1490
 3625WAT     H211087   0.838   1.505   0.087 -0.7939  1.2260  0.2242
 3626WAT      O11088   1.824   1.207   3.486  0.1617  0.4672  0.0763
 3626WAT     H111089   1.912   1.186   3.455  0.0478 -1.5058  0.9269
 3626WAT     H211090   1.767   1.149   3.436 -0.5992  1.3153 -0.0541
 3627WAT      O11091   0.433   2.904   1.186  0.5510  0.1469  0.3098
 3627WAT     H111092   0.448   2.930   1.277 -0.9309  0.0968  0.5968
 3627WAT     H211093   0.394   2.981   1.145 -2.2722 -0.9709  0.7185
 3628WAT      O11094   0.334   4.373   4.653 -0.1740  0.4224 -0.0435
 3628WAT     H111095   0.386   4.298   4.682 -2.7864 -2.0476 -1.2530
 3628WAT     H211096   0.280   4.396   4.729  2.2504  2.7902  1.1129
 3629WAT      O11097   1.505   1.128   0.334  0.3064 -0.1332  0.4702
 3629WAT     H111098   1.564   1.070   0.381  0.2437  0.6460  1.5631
 3629WAT     H211099   1.470   1.186   0.402  0.2489  1.0677 -0.5494
 3630WAT      O11100   1.404   5.127   3.054 -0.1972  0.1539  0.7287
 3630WAT     H111101   1.468   5.197   3.070 -0.4356  0.0861  2.1007
 3630WAT     H211102   1.448   5.047   3.080  0.2365 -0.3118 -1.2707
 3631WAT      O11103   3.635   1.751   0.424  0.5607  0.2288 -0.4792
 3631WAT     H111104   3.719   1.785   0.395  1.9965 -1.0269  1.8952
 3631WAT     H211105   3.646   1.734   0.517 -1.9457 -1.1198 -0.3176
 3632WAT      O11106   1.833   2.986   4.088  0.1500 -0.1610  0.5095
 3632WAT     H111107   1.741   3.003   4.111  0.2033  0.7332  0.0760
 3632WAT     H211108   1.840   3.013   3.997  0.6972 -0.8283  0.3500
 3633WAT      O11109   1.988   3.275   3.898  0.2300  0.0141  0.1576
 3633WAT     H111110   2.000   3.354   3.845 -0.0048 -0.2545 -0.3009
 3633WAT     H211111   2.003   3.203   3.837 -0.5480 -0.3056  0.3246
 3634WAT      O11112   4.207   0.403   3.448  0.6620 -0.3374 -0.1225
 3634WAT     H111113   4.223   0.495   3.426  1.6830 -0.4176  0.2231
 3634WAT     H211114   4.118   0.402   3.484  0.9416  0.6510  0.6333
 3635WAT      O11115   4.834   4.415   3.467 -0.1875 -0.8467 -0.0203
 3635WAT     H111116   4.833   4.510   3.451  1.1463 -0.9034 -0.5083
 3635WAT     H211117   4.795   4.405   3.554  0.0563  0.1852  0.2166
 3636WAT      O11118   0.750   3.480   4.439 -0.1065 -0.0601  0.2032
 3636WAT     H111119   0.729   3.530   4.517 -0.6320 -1.1543  0.7951
 3636WAT     H211120   0.792   3.401   4.472  0.6732 -0.0383 -0.6973
 3637WAT      O11121   2.310   1.454   5.815  0.0605 -0.5518 -0.2651
 3637WAT     H111122   2.346   1.538   5.787 -0.3208 -0.0365  0.7152
 3637WAT     H211123   2.381   1.391   5.801  0.6650  0.0970 -0.1758
 3638WAT      O11124   4.667   2.477   4.450 -0.2051  0.2067 -0.1752
 3638WAT     H111125   4.652   2.521   4.534  0.2265 -0.2104  0.1262
 3638WAT     H211126   4.632   2.538   4.385 -1.2850  0.1868  0.3501
 3639WAT      O11127   1.903   2.879   0.641 -0.2327 -0.4226  0.0556
 3639WAT     H111128   1.988   2.911   0.671 -1.1432  0.6923  1.5646
 3639WAT     H211129   1.867   2.834   0.717 -1.2075 -0.4646 -0.4247
 3640WAT      O11130   4.294   4.730   3.215 -0.3481  0.0954 -0.1503
 3640WAT     H111131   4.309   4.793   3.286 -0.0693  0.0201 -0.1387
 3640WAT     H211132   4.321   4.646   3.252  1.7679  0.3356 -0.9822
 3641WAT      O11133   3.288   2.861   3.790  0.2399  0.8048  0.1052
 3641WAT     H111134   3.331   2.876   3.706 -0.1065  1.9074  0.0956
 3641WAT     H211135   3.195   2.874   3.772  0.1008  0.4482  0.5379
 3642WAT      O11136  -0.003   2.158   0.834 -0.2860  0.0335  0.4025
 3642WAT     H111137   0.058   2.185   0.765  0.7819 -0.1781  1.2337
 3642WAT     H211138  -0.005   2.063   0.828 -0.0166 -0.0004  0.7901
 3643WAT      O11139   0.687   2.627   5.256  0.1686 -0.2438  0.4978
 3643WAT     H111140   0.705   2.536   5.279 -0.4963  0.1209  2.6547
 3643WAT     H211141   0.751   2.677   5.306 -0.5318  0.5435  0.6234
 3644WAT      O11142   2.382   2.492   4.603  0.0481  0.1954 -0.9773
 3644WAT     H111143   2.355   2.440   4.679 -0.6098 -2.5466 -2.9260
 3644WAT     H211144   2.361   2.582   4.626 -1.6718 -0.7383  1.4216
 3645WAT      O11145   4.840   2.405   2.918 -0.0666  0.1066 -0.1470
 3645WAT     H111146   4.934   2.402   2.935 -0.0181  1.6834  0.0787
 3645WAT     H211147   4.800   2.413   3.004 -0.4201 -0.5794 -0.2419
 3646WAT      O11148   4.375   3.196   5.193 -0.3086  0.3292 -0.1395
 3646WAT     H111149   4.463   3.162   5.210  0.3786  2.5881  1.4041
 3646WAT     H211150   4.316   3.124   5.215  1.1124 -0.7451  0.3143
 3647WAT      O11151   0.495   2.765   5.423  0.2132 -0.1199 -0.1123
 3647WAT     H111152   0.573   2.796   5.469 -0.8611  2.4560  0.1474
 3647WAT     H211153   0.524   2.749   5.334  0.8403  1.9698 -0.3280
 3648WAT      O11154   0.412   4.142   4.799 -0.8123 -0.6280 -0.2870
 3648WAT     H111155   0.321   4.121   4.818 -1.0502  2.0242  2.0832
 3648WAT     H211156   0.462   4.077   4.849 -1.3858 -0.8523  0.0049
 3649WAT      O11157   0.336   1.008   2.738  0.2889  0.0592 -0.3017
 3649WAT     H111158   0.387   1.078   2.698 -0.5970  1.2567  0.5991
 3649WAT     H211159   0.247   1.021   2.705 -0.1295  0.1054  0.7926
 3650WAT      O11160   3.489   3.943   2.567 -0.5155  0.1752 -0.6788
 3650WAT     H111161   3.494   4.005   2.640 -0.4089 -0.3014 -0.2752
 3650WAT     H211162   3.571   3.893   2.573 -0.7321 -0.1985 -0.8274
 3651WAT      O11163   2.135   4.869   3.906 -0.1247 -0.2174  0.0317
 3651WAT     H111164   2.216   4.820   3.922  0.4987 -0.1465 -2.5044
 3651WAT     H211165   2.144   4.947   3.960  1.6761 -0.0522 -0.4399
 3652WAT      O11166   0.551   0.898   4.307  0.6080 -0.2379 -0.6017
 3652WAT     H111167   0.570   0.868   4.218  3.1103  0.4930 -0.4055
 3652WAT     H211168   0.636   0.926   4.341 -0.3755  0.0433  1.8340
 3653WAT      O11169   4.463   2.839   2.476  0.4611  0.4867 -0.4353
 3653WAT     H111170   4.516   2.767   2.510  1.3243  0.1404 -2.4099
 3653WAT     H211171   4.514   2.917   2.495 -0.1290  0.5560  1.0352
 3654WAT      O11172   4.696   1.565   4.154  0.0998 -0.0996 -0.0756
 3654WAT     H111173   4.684   1.559   4.059 -0.4485 -1.2861  0.0505
 3654WAT     H211174   4.616   1.606   4.186 -0.3905 -1.0944  0.0109
 3655WAT      O11175   0.410   1.135   4.661 -0.0163  1.0317  0.3722
 3655WAT     H111176   0.455   1.060   4.700  0.6123  1.7985  1.1505
 3655WAT     H211177   0.377   1.102   4.577  0.7265  0.0443  0.4530
 3656WAT      O11178   1.201   4.534   1.362 -0.2027 -0.0414 -0.0866
 3656WAT     H111179   1.192   4.453   1.413 -0.5396  0.0302 -0.0307
 3656WAT     H211180   1.248   4.594   1.420  0.9996 -0.5402 -0.5168
 3657WAT      O11181   0.942   3.230   0.195 -0.3034 -0.2968 -0.1327
 3657WAT     H111182   1.014   3.167   0.198 -0.6215 -0.6334  1.3052
 3657WAT     H211183   0.942   3.262   0.105  2.1832  0.3709  0.0361
 3658WAT      O11184   4.353   1.598   2.649 -0.0080 -0.7100  0.8175
 3658WAT     H111185   4.309   1.514   2.632 -0.8215 -0.1970  0.3277
 3658WAT     H211186   4.436   1.591   2.602  0.2469 -1.5166  1.3737
 3659WAT      O11187   2.619   0.836   2.488  0.2683 -0.1045 -0.0779
 3659WAT     H111188   2.592   0.744   2.482  1.4157 -0.3656 -2.5677
 3659WAT     H211189   2.544   0.886   2.455  0.7210 -0.4267 -1.6933
 3660WAT      O11190   2.360   1.600   4.482  0.2714 -0.6433  0.7210
 3660WAT     H111191   2.405   1.523   4.446  0.4556  0.4467 -1.5173
 3660WAT     H211192   2.268   1.588   4.456  0.3175 -0.0737  0.2856
 3661WAT      O11193   2.375   2.546   5.336 -0.4229 -0.3954 -0.1968
 3661WAT     H111194   2.326   2.621   5.370  0.4017  1.6405 -3.0914
 3661WAT     H211195   2.464   2.560   5.368 -0.5827 -1.0351  0.5443
 3662WAT      O11196   2.053   0.842   4.045 -0.0857 -0.1105  0.7862
 3662WAT     H111197   2.090   0.837   3.957 -2.3176 -0.5845 -0.2015
 3662WAT     H211198   2.068   0.754   4.082 -0.2643 -0.3011  0.4024
 3663WAT      O11199   1.303   1.397   2.962  0.2079  0.1134 -0.8780
 3663WAT     H111200   1.233   1.439   3.011  0.6256  0.1974 -0.3496
 3663WAT     H211201   1.284   1.304   2.967  0.3057  0.1157 -0.4710
 3664WAT      O11202   2.601   4.373   2.118 -0.1268  0.2749  0.1450
 3664WAT     H111203   2.635   4.323   2.044 -1.1269  0.6380 -0.5929
 3664WAT     H211204   2.541   4.313   2.161  0.2031  0.1738  0.4642
 3665WAT      O11205   2.465   1.895   3.153 -0.2546 -0.4073 -0.2936
 3665WAT     H111206   2.555   1.868   3.170  0.3860  0.4456 -2.0984
 3665WAT     H211207   2.438   1.940   3.233  1.0295 -0.3801  0.1482
 3666WAT      O11208   4.854   0.804   3.841 -0.2120 -0.1006  0.2133
 3666WAT     H111209   4.908   0.860   3.898 -0.3202  0.6364 -0.3901
 3666WAT     H211210   4.894   0.812   3.755  0.3053 -1.6861  0.2761
 3667WAT      O11211   1.849   1.962   0.785  0.1228 -0.2565 -0.3082
 3667WAT     H111212   1.811   1.894   0.728 -0.4663  0.5677 -0.9228
 3667WAT     H211213   1.819   1.939   0.873 -2.5032  0.7581 -0.8347
 3668WAT      O11214   1.151   1.041   1.746 -0.0609 -0.0991 -0.3413
 3668WAT     H111215   1.075   0.983   1.756 -0.4973  0.6028  0.4855
 3668WAT     H211216   1.163   1.080   1.833 -0.1012  1.4364 -0.9906
 3669WAT      O11217   0.976   0.531   1.869  1.1045 -0.3096  0.3372
 3669WAT     H111218   0.943   0.601   1.925  0.4985 -0.9170  0.7587
 3669WAT     H211219   0.914   0.527   1.796  0.5070 -1.1273  0.8777
 3670WAT      O11220   3.747   1.424   0.981  0.1078  0.5243  0.4086
 3670WAT     H111221   3.827   1.416   0.929 -0.3028 -2.0836  0.0372
 3670WAT     H211222   3.714   1.511   0.961  1.7075  0.8269 -1.1478
 3671WAT      O11223   1.467   1.720   5.584  0.6228 -0.4226 -0.5919
 3671WAT     H111224   1.453   1.764   5.669  1.5727 -0.9867 -0.1268
 3671WAT     H211225   1.562   1.705   5.580  0.7915  0.8350 -2.3937
 3672WAT      O11226   4.216   2.356   4.020  0.1706  0.0810 -0.4782
 3672WAT     H111227   4.311   2.346   4.028  0.4349  2.5449  0.1494
 3672WAT     H211228   4.181   2.315   4.098  1.0204  2.1566  1.0835
 3673WAT      O11229   1.173   2.017   1.057 -0.1906 -0.4177  0.0878
 3673WAT     H111230   1.161   2.002   1.151 -2.0575  1.0178  0.1368
 3673WAT     H211231   1.089   2.052   1.028  0.9481  0.9380 -1.7525
 3674WAT      O11232   3.087   2.026   4.985 -0.4793 -0.5647 -0.1593
 3674WAT     H111233   3.032   2.042   4.909  0.7315 -0.2727 -1.0026
 3674WAT     H211234   3.090   1.930   4.992 -0.9736 -0.5860 -0.1852
 3675WAT      O11235   2.923   4.870   3.670  0.4292  0.1948  0.2366
 3675WAT     H111236   2.972   4.952   3.674 -0.2443  0.6737 -0.8456
 3675WAT     H211237   2.832   4.897   3.686  0.1244 -0.2488 -0.6959
 3676WAT      O11238   0.979   0.592   1.020 -0.3721 -0.0338 -0.2155
 3676WAT     H111239   0.985   0.641   0.938 -0.1848 -0.6347 -0.5692
 3676WAT     H211240   0.886   0.582   1.036 -0.4150  0.8723  0.1269
 3677WAT      O11241   3.958   0.941   2.556  0.0863  0.6346  0.6968
 3677WAT     H111242   3.979   0.966   2.646 -2.5463 -1.0051  1.8874
 3677WAT     H211243   3.889   0.875   2.565 -0.6818  0.8239 -2.5592
 3678WAT      O11244   2.597   0.265   1.954 -0.1345 -0.0750  0.6285
 3678WAT     H111245   2.579   0.324   2.028 -2.0054 -1.0066  0.9695
 3678WAT     H211246   2.512   0.227   1.933  0.8595 -1.9587 -0.1801
 3679WAT      O11247   0.575   1.989   5.675 -0.3868 -0.7472 -0.0937
 3679WAT     H111248   0.520   1.978   5.752 -1.0717 -2.7044 -0.8031
 3679WAT     H211249   0.664   1.995   5.709 -0.8136  0.1475  0.9243
 3680WAT      O11250   3.026   2.998   1.017 -0.1705  0.1910  0.7812
 3680WAT     H111251   3.018   3.091   0.995 -0.8696  0.2390  1.2093
 3680WAT     H211252   3.107   2.993   1.067  0.9594  0.2295 -0.9613
 3681WAT      O11253   0.024   1.122   2.881  0.1102 -0.3281 -0.5118
 3681WAT     H111254  -0.029   1.199   2.859 -0.7609 -0.6468  0.3871
 3681WAT     H211255   0.010   1.110   2.975 -1.2835 -2.6911 -0.9557
 3682WAT      O11256   1.087   0.490   1.392  0.4013  0.2275 -0.0358
 3682WAT     H111257   1.155   0.554   1.409  0.3263  0.6608 -1.2640
 3682WAT     H211258   1.119   0.440   1.316 -1.2157  1.3653 -1.5655
 3683WAT      O11259   3.346   2.664   5.343 -0.5261 -0.3018  0.4788
 3683WAT     H111260   3.401   2.633   5.415 -0.0594 -0.6192 -0.0042
 3683WAT     H211261   3.265   2.614   5.351  0.1877 -1.6313 -0.2478
 3684WAT      O11262   3.397   1.745   3.656  0.2590  0.7604  0.3179
 3684WAT     H111263   3.453   1.677   3.619 -0.0367  0.0652  1.1106
 3684WAT     H211264   3.379   1.715   3.746 -1.0046  1.1803  0.2283
 3685WAT      O11265   0.948   5.302   1.623  0.0456 -0.1587 -0.2047
 3685WAT     H111266   0.885   5.328   1.691  0.0755  0.9564 -0.5849
 3685WAT     H211267   0.964   5.382   1.574  0.4384 -0.8347 -1.2059
 3686WAT      O11268   1.908   1.677   0.214  0.0074 -0.6382  0.1220
 3686WAT     H111269   1.998   1.697   0.242 -0.5684  1.1786  0.8432
 3686WAT     H211270   1.919   1.619   0.139  1.8038 -0.0994 -0.0844
 3687WAT      O11271   1.177   2.803   0.828  0.0103 -0.0897 -0.3267
 3687WAT     H111272   1.102   2.833   0.777  0.4532  1.3794 -0.1823
 3687WAT     H211273   1.218   2.735   0.775 -0.7655 -0.0897 -0.9338
 3688WAT      O11274   1.491   0.261   3.661  0.3763 -0.0912  0.4014
 3688WAT     H111275   1.446   0.177   3.673  1.6009 -0.9544 -0.7373
 3688WAT     H211276   1.494   0.298   3.749 -1.9830 -0.2465  0.6181
 3689WAT      O11277   0.832   1.082   0.968  0.0425 -0.1626  0.5327
 3689WAT     H111278   0.878   1.071   1.051 -0.8881 -2.0001  0.8562
 3689WAT     H211279   0.777   1.004   0.961 -1.7980  1.1681 -0.6035
 3690WAT      O11280   1.241   1.288   2.348 -0.3416 -0.0768  0.1555
 3690WAT     H111281   1.177   1.306   2.417 -1.1669 -0.7008 -0.4311
 3690WAT     H211282   1.198   1.315   2.267  0.3510  0.0144 -0.1869
 3691WAT      O11283   2.932   2.385   5.227  0.0663  0.3255  0.1380
 3691WAT     H111284   2.901   2.314   5.284  0.6259  0.8737  1.1589
 3691WAT     H211285   2.868   2.389   5.156  0.6682 -1.9988 -0.6217
 3692WAT      O11286   1.623   2.438   3.415 -0.0631  0.5087  0.6989
 3692WAT     H111287   1.557   2.478   3.471  0.4889 -0.9612  2.5169
 3692WAT     H211288   1.651   2.360   3.463  0.8001 -0.5919 -1.4336
 3693WAT      O11289   2.099   5.059   4.101 -0.7308 -0.0065  0.3618
 3693WAT     H111290   2.013   5.099   4.114 -0.2526  0.4231  2.6824
 3693WAT     H211291   2.161   5.126   4.128  0.2997 -0.6943 -0.2458
 3694WAT      O11292   2.702   2.631   1.891 -0.0105  0.4756 -0.0632
 3694WAT     H111293   2.667   2.673   1.812 -1.4326 -0.7948 -0.1588
 3694WAT     H211294   2.649   2.552   1.901 -0.0986  0.7654  2.3551
 3695WAT      O11295   1.879   5.535   2.972 -0.2382  0.3307 -0.2526
 3695WAT     H111296   1.959   5.518   3.022 -0.8627  0.3138  0.7700
 3695WAT     H211297   1.878   5.468   2.904  0.3830  0.0583  0.0045
 3696WAT      O11298   0.491   3.340   3.897  0.6128 -0.1796  0.1995
 3696WAT     H111299   0.400   3.344   3.924  1.0406 -1.7810  2.1160
 3696WAT     H211300   0.541   3.338   3.979  2.5777  2.9146 -0.7204
 3697WAT      O11301   1.308   4.680   4.084  0.1028 -0.0842  0.4058
 3697WAT     H111302   1.232   4.638   4.042  1.2627 -2.2174  0.3480
 3697WAT     H211303   1.307   4.647   4.174 -0.2694  1.6462  1.0857
 3698WAT      O11304   1.419   1.489   3.643  0.6101 -0.5968  0.1953
 3698WAT     H111305   1.363   1.444   3.581 -2.0016 -0.5113  2.2991
 3698WAT     H211306   1.424   1.579   3.610 -1.3884 -0.3533  0.4381
 3699WAT      O11307   2.760   1.494   4.435  0.6719  0.2420 -0.3894
 3699WAT     H111308   2.732   1.503   4.526 -0.5725 -0.7962 -0.6535
 3699WAT     H211309   2.748   1.582   4.398 -2.2726 -0.0979 -0.4628
 3700WAT      O11310   0.812   1.037   4.037  0.4927 -0.1924 -0.7845
 3700WAT     H111311   0.793   1.008   4.127 -0.4769  0.0835 -0.8821
 3700WAT     H211312   0.739   1.095   4.016 -0.1605 -1.4860 -2.3196
 3701WAT      O11313   0.620   3.335   2.460 -0.0376  0.0075 -0.0681
 3701WAT     H111314   0.692   3.275   2.440 -0.7689 -1.3938  1.3006
 3701WAT     H211315   0.543   3.291   2.425 -0.4260  0.8136 -0.2349
 3702WAT      O11316   0.853   3.377   4.941 -0.4532 -0.0862 -0.2565
 3702WAT     H111317   0.796   3.441   4.983  1.6390  1.6569  0.1270
 3702WAT     H211318   0.923   3.429   4.901  2.5021 -2.1101  1.7942
 3703WAT      O11319   1.789   4.903   0.818 -0.0102  0.2002  0.3175
 3703WAT     H111320   1.714   4.914   0.759 -0.0980 -0.8752  0.1943
 3703WAT     H211321   1.806   4.808   0.817  2.1358  0.5229 -0.6415
 3704WAT      O11322   2.577   1.197   1.469  0.2110 -0.3822 -0.1662
 3704WAT     H111323   2.489   1.169   1.445 -0.0759  0.7244 -0.4342
 3704WAT     H211324   2.572   1.292   1.473  1.5418 -0.2588 -0.7982
 3705WAT      O11325   2.062   1.940   4.156 -0.6080 -0.1763  0.3489
 3705WAT     H111326   2.008   1.993   4.213  0.4207 -0.0751  1.2725
 3705WAT     H211327   2.152   1.953   4.189 -0.2913 -2.3436  0.5461
 3706WAT      O11328   0.161   0.288   3.065 -0.3689  0.2668  0.0865
 3706WAT     H111329   0.207   0.372   3.067  1.9929 -0.9329 -0.4236
 3706WAT     H211330   0.124   0.283   2.977 -0.6728  0.8431  0.1779
 3707WAT      O11331   4.027   1.068   2.316  0.4644 -1.1995  0.2096
 3707WAT     H111332   4.105   1.028   2.278  0.4052 -1.0547 -0.0672
 3707WAT     H211333   4.012   1.020   2.397  0.8891 -1.1768  0.3040
 3708WAT      O11334   1.156   1.415   0.012 -0.1664  0.8856 -0.0736
 3708WAT     H111335   1.066   1.444  -0.005 -0.9045 -1.9895 -1.6326
 3708WAT     H211336   1.152   1.373   0.098 -0.3940  0.4471 -0.2985
 3709WAT      O11337   1.079   1.705   0.733 -0.3147  0.1644  1.0155
 3709WAT     H111338   1.135   1.763   0.682  1.2558 -2.1036  0.0099
 3709WAT     H211339   1.096   1.730   0.824  2.0285 -0.1177  0.7240
 3710WAT      O11340   4.108   1.625   4.572  0.4347 -0.3132  0.8440
 3710WAT     H111341   4.090   1.576   4.491  1.0392  0.1218  0.4404
 3710WAT     H211342   4.157   1.564   4.626  2.7138  0.3607 -0.3427
 3711WAT      O11343   4.821   1.921   2.065  0.3275  0.0737  0.0556
 3711WAT     H111344   4.839   2.001   2.114 -1.3617 -0.2462  1.2852
 3711WAT     H211345   4.736   1.937   2.024 -0.3656 -1.3216  0.8889
 3712WAT      O11346   2.539   5.421   1.285 -0.6437  0.5163  0.4647
 3712WAT     H111347   2.597   5.493   1.308  0.9775 -0.9168  1.1008
 3712WAT     H211348   2.591   5.342   1.299 -1.9526 -0.7688 -1.2929
 3713WAT      O11349   2.906   4.357   3.123  0.2900 -0.3366  0.1588
 3713WAT     H111350   2.844   4.374   3.194 -0.0258 -1.7572  0.2732
 3713WAT     H211351   2.979   4.416   3.140  0.0773 -0.4144  1.4862
 3714WAT      O11352   4.231   5.560   3.134 -0.4506  0.4114 -0.1371
 3714WAT     H111353   4.309   5.513   3.162 -0.5787 -0.5153 -1.2773
 3714WAT     H211354   4.247   5.651   3.161  1.6486  0.5389 -1.5918
 3715WAT      O11355   2.257   5.524   3.499 -0.3202 -0.4015 -0.9655
 3715WAT     H111356   2.267   5.492   3.409 -0.0980 -0.5890 -0.8767
 3715WAT     H211357   2.206   5.604   3.490  0.2946 -0.0367 -1.3335
 3716WAT      O11358   0.254   1.473   4.280 -0.2892  0.1018  0.2591
 3716WAT     H111359   0.161   1.496   4.275 -0.4706 -0.6057  0.3461
 3716WAT     H211360   0.258   1.400   4.342  0.2013 -0.5348 -0.5097
 3717WAT      O11361   4.776   2.901   0.863 -0.5614 -0.1611  0.1491
 3717WAT     H111362   4.744   2.877   0.950  0.2601 -0.5513  0.3548
 3717WAT     H211363   4.778   2.818   0.815  1.8746 -0.5445  0.7271
 3718WAT      O11364   3.279   1.984   3.479  0.5464  0.4931 -0.4481
 3718WAT     H111365   3.306   2.008   3.390 -0.8882 -0.2339 -1.1141
 3718WAT     H211366   3.240   2.064   3.515  2.0982  1.1058 -0.0367
 3719WAT      O11367   0.925   1.432   4.396  0.2731 -0.0469 -0.1946
 3719WAT     H111368   0.976   1.429   4.315  2.2594  1.0438  0.9342
 3719WAT     H211369   0.946   1.517   4.434 -0.2970 -0.6924  1.6744
 3720WAT      O11370   0.257   3.081   4.812  0.4293 -0.3384  0.7512
 3720WAT     H111371   0.260   3.165   4.766  0.0070 -2.0702 -2.7549
 3720WAT     H211372   0.183   3.088   4.871  0.5918  1.8212  0.7653
 3721WAT      O11373   0.392   0.556   1.257 -0.3255  0.6853  0.3526
 3721WAT     H111374   0.443   0.487   1.299  0.9041  1.0972 -0.4209
 3721WAT     H211375   0.329   0.583   1.323  0.8206  0.5421  1.5419
 3722WAT      O11376   1.194   4.402   2.604 -0.1268 -0.2071  0.4526
 3722WAT     H111377   1.274   4.447   2.631 -0.0597  0.2373 -0.4427
 3722WAT     H211378   1.223   4.343   2.534 -0.7411  0.7755 -0.6710
 3723WAT      O11379   1.628   1.308   4.628  0.1984  0.6283 -0.2972
 3723WAT     H111380   1.577   1.352   4.560 -0.3868 -0.8743 -0.8594
 3723WAT     H211381   1.649   1.378   4.690 -1.6889  1.5007 -0.5535
 3724WAT      O11382   4.482   1.727   1.319 -0.1688 -0.1548  0.1853
 3724WAT     H111383   4.391   1.734   1.292  0.1126  1.0673 -0.5246
 3724WAT     H211384   4.492   1.793   1.388 -0.0189 -0.8730  0.8702
 3725WAT      O11385   0.596   1.508   3.690  0.3234 -0.1325 -0.5270
 3725WAT     H111386   0.610   1.436   3.629  2.1647 -0.8925  0.6753
 3725WAT     H211387   0.548   1.573   3.640 -0.5886 -1.8066 -1.9380
 3726WAT      O11388   2.237   2.082   3.327  0.0385  0.3366  0.1291
 3726WAT     H111389   2.256   2.112   3.238  2.1109 -0.3556  0.2866
 3726WAT     H211390   2.323   2.072   3.368 -0.8501  0.2988  2.1166
 3727WAT      O11391   3.787   1.965   3.804  0.3120  0.4922 -0.4398
 3727WAT     H111392   3.697   1.975   3.773  0.5654  0.1178 -1.3286
 3727WAT     H211393   3.815   1.881   3.767  0.8912  0.4216  0.1591
 3728WAT      O11394   1.789   4.525   2.042  0.0088 -0.2247 -0.3308
 3728WAT     H111395   1.702   4.518   2.082  0.2037 -2.0330 -0.1398
 3728WAT     H211396   1.845   4.558   2.111  0.0701 -2.0267  0.5322
 3729WAT      O11397   4.949   1.501   4.256 -0.0989 -0.1986  0.2734
 3729WAT     H111398   4.940   1.485   4.349  0.8599 -0.9133  0.2609
 3729WAT     H211399   4.859   1.501   4.222 -0.3690 -1.4091  0.9605
 3730WAT      O11400   3.697   1.041   1.806 -0.2375  0.1368  0.7924
 3730WAT     H111401   3.784   1.008   1.781 -0.1149 -0.3956  1.8806
 3730WAT     H211402   3.636   0.989   1.754  0.0639 -0.0327  0.6042
 3731WAT      O11403   2.926   0.721   3.892 -0.6063 -0.3180 -0.1028
 3731WAT     H111404   3.014   0.741   3.862 -0.1040  1.1028  2.0845
 3731WAT     H211405   2.908   0.633   3.858  1.7363 -0.7344 -0.3976
 3732WAT      O11406   1.159   2.993   1.835 -0.1171 -0.1035 -0.3667
 3732WAT     H111407   1.219   2.959   1.769  1.1270  0.4149  0.4632
 3732WAT     H211408   1.139   3.082   1.807  1.1677  0.4533  0.4246
 3733WAT      O11409   1.832   1.546   1.285  0.7124  0.2934 -0.0438
 3733WAT     H111410   1.809   1.490   1.359  3.3830  0.7689  1.2587
 3733WAT     H211411   1.751   1.593   1.265 -0.9329 -2.1195  0.4589
 3734WAT      O11412   2.106   2.142   5.042  0.0482  0.7042  0.3282
 3734WAT     H111413   2.066   2.056   5.031 -0.9220  1.1541  0.2088
 3734WAT     H211414   2.102   2.182   4.955  2.0752  0.2273 -0.0245
 3735WAT      O11415   4.227   2.770   5.499  0.4249 -0.3123  0.2182
 3735WAT     H111416   4.187   2.754   5.413  1.7530 -1.6195 -0.1948
 3735WAT     H211417   4.268   2.856   5.490 -0.2636 -0.0097 -0.1205
 3736WAT      O11418   2.412   2.992   0.081 -0.0754 -0.2948 -0.0207
 3736WAT     H111419   2.452   2.915   0.041  0.3262 -0.2228  0.2341
 3736WAT     H211420   2.486   3.038   0.123 -0.0993  0.8378 -1.1547
 3737WAT      O11421   1.853   3.203   5.067 -0.2234 -0.2537  0.2002
 3737WAT     H111422   1.787   3.139   5.093 -0.1462 -0.7028 -0.6819
 3737WAT     H211423   1.843   3.275   5.130  0.7995 -1.8267  2.3207
 3738WAT      O11424   0.034   4.476   3.839 -0.0324 -0.2376  0.1432
 3738WAT     H111425   0.030   4.384   3.813 -1.7595  0.1208 -1.0130
 3738WAT     H211426   0.049   4.524   3.758  0.5417  0.5392  0.6919
 3739WAT      O11427   3.154   4.480   3.217  0.5617  0.0425  0.1912
 3739WAT     H111428   3.135   4.419   3.288  2.9006  0.6809  1.4839
 3739WAT     H211429   3.250   4.480   3.211  0.4736  0.8339 -2.2563
 3740WAT      O11430   1.008   1.015   3.465  0.1002  0.3152 -0.1048
 3740WAT     H111431   0.941   1.026   3.533  0.1802  1.6869 -0.2241
 3740WAT     H211432   1.087   1.054   3.502  0.0270  1.5145 -1.1416
 3741WAT      O11433   1.577   1.724   3.178 -0.0568 -0.0308 -0.0987
 3741WAT     H111434   1.604   1.648   3.230  0.7524 -0.9861 -1.8294
 3741WAT     H211435   1.657   1.773   3.163 -0.4790  0.8562  0.4957
 3742WAT      O11436   2.991   0.564   1.050 -0.3442 -0.3667  0.1187
 3742WAT     H111437   2.945   0.579   0.968  0.7063  0.2578 -0.3693
 3742WAT     H211438   2.972   0.641   1.103 -1.0646 -0.7930  0.5011
 3743WAT      O11439   0.812   1.677   3.705 -0.2325  0.1260 -0.0346
 3743WAT     H111440   0.875   1.668   3.776 -0.9524 -2.1769  0.4157
 3743WAT     H211441   0.759   1.597   3.710 -0.7908  0.2284 -2.6923
 3744WAT      O11442   1.141   2.345   2.513 -0.7034  0.0023 -0.0093
 3744WAT     H111443   1.081   2.363   2.585 -0.3795 -1.3609  0.6324
 3744WAT     H211444   1.144   2.250   2.507 -0.2608  0.0714 -1.4488
 3745WAT      O11445   1.651   3.783   1.239  0.2407 -0.1533  0.6083
 3745WAT     H111446   1.592   3.738   1.299 -1.5758 -1.3423 -1.9138
 3745WAT     H211447   1.596   3.849   1.197  1.3405  0.3155 -0.1311
 3746WAT      O11448   2.437   0.030   1.406  0.5452  0.9867  0.0582
 3746WAT     H111449   2.504   0.038   1.474 -0.4272 -2.0407  1.5241
 3746WAT     H211450   2.466  -0.043   1.352  0.3518  2.1789 -1.7641
 3747WAT      O11451   0.300   0.091   2.473  0.0326  0.1081  0.7642
 3747WAT     H111452   0.344   0.141   2.543 -0.0774 -1.0233  1.6695
 3747WAT     H211453   0.213   0.074   2.508 -1.6166  3.1770 -1.4024
 3748WAT      O11454   0.802   1.152   1.770  0.0084 -0.7485  0.1236
 3748WAT     H111455   0.713   1.174   1.795 -0.1000  0.5283 -1.2656
 3748WAT     H211456   0.851   1.234   1.776 -0.0633 -0.2456 -3.7271
 3749WAT      O11457   3.910   0.772   1.450 -0.7625 -0.3328 -0.0889
 3749WAT     H111458   3.957   0.767   1.533 -1.3017  1.1415  0.3419
 3749WAT     H211459   3.970   0.735   1.386 -0.0807 -0.9010  0.8511
 3750WAT      O11460   1.055   1.432   3.902  0.3893  0.0931  0.1777
 3750WAT     H111461   0.972   1.387   3.891  1.0535 -1.2327  0.4568
 3750WAT     H211462   1.069   1.477   3.818 -1.0448  1.1532  0.4647
 3751WAT      O11463   1.844   4.071   4.037  0.2212  0.3442  0.5959
 3751WAT     H111464   1.781   4.008   4.072 -0.7814  0.5250 -0.7747
 3751WAT     H211465   1.790   4.147   4.013  0.7825  0.1973 -1.3686
 3752WAT      O11466   3.834   2.540   3.793 -1.0186 -0.1809  0.5732
 3752WAT     H111467   3.902   2.583   3.741 -0.4373 -1.4786  0.2075
 3752WAT     H211468   3.878   2.463   3.830 -1.9681 -0.3708  1.3484
 3753WAT      O11469   3.356   1.736   3.350  0.4550  0.0775  0.0693
 3753WAT     H111470   3.419   1.676   3.390  0.0012  0.1378  0.8856
 3753WAT     H211471   3.338   1.801   3.418 -0.9084 -0.2489  0.0504
 3754WAT      O11472   2.447   2.024   2.629 -0.7685  0.5382 -0.0023
 3754WAT     H111473   2.404   1.962   2.570 -0.9275  0.0806  0.5929
 3754WAT     H211474   2.393   2.103   2.623 -1.5822  0.0456  0.5620
 3755WAT      O11475   3.623   0.025   3.749  0.2810  0.4898 -0.1656
 3755WAT     H111476   3.560   0.091   3.720 -0.9224 -0.5839 -0.0700
 3755WAT     H211477   3.569  -0.043   3.790  1.6170  0.1650  1.1178
 3756WAT      O11478   0.177   5.144   1.273 -0.5125  0.3286 -0.5664
 3756WAT     H111479   0.135   5.216   1.226 -0.4088 -0.0094 -1.1774
 3756WAT     H211480   0.103   5.096   1.313 -0.5020  1.6746  1.1939
 3757WAT      O11481   2.559   1.626   1.942 -0.2759  0.2814  0.3524
 3757WAT     H111482   2.568   1.663   1.853 -0.7816  1.5358  0.7949
 3757WAT     H211483   2.477   1.663   1.974  0.3140  0.5089  1.6448
 3758WAT      O11484   4.083   0.726   1.678  0.2688 -0.2442 -0.1183
 3758WAT     H111485   4.171   0.761   1.663 -0.0408  1.5659  1.7233
 3758WAT     H211486   4.089   0.682   1.763  0.0788 -2.8888 -1.3715
 3759WAT      O11487   2.073   3.963   2.540 -0.2886 -0.8459  0.5009
 3759WAT     H111488   2.138   4.012   2.490 -1.0125 -0.1354  0.2340
 3759WAT     H211489   2.105   3.873   2.540  0.3756 -0.6163 -0.1492
 3760WAT      O11490   0.812   3.537   0.893 -0.1684  0.2136 -0.3785
 3760WAT     H111491   0.824   3.468   0.827  0.7858  2.0489 -2.2309
 3760WAT     H211492   0.818   3.618   0.844  1.1100  1.7140  2.0917
 3761WAT      O11493   2.169   5.579   4.009  0.1989 -0.1510  0.2038
 3761WAT     H111494   2.187   5.672   3.995  3.1533 -0.5144  1.0926
 3761WAT     H211495   2.217   5.535   3.940  0.4376 -1.1001  0.9609
 3762WAT      O11496   2.332   2.186   0.209  0.1158  0.4032  0.0873
 3762WAT     H111497   2.298   2.222   0.290  0.1285 -1.1013  0.7981
 3762WAT     H211498   2.427   2.186   0.220  0.0685 -1.0936  0.6830
 3763WAT      O11499   1.665   1.330   1.037 -0.0380  0.4759  0.3543
 3763WAT     H111500   1.590   1.272   1.031 -0.1209  0.4909  1.1566
 3763WAT     H211501   1.633   1.415   1.007  0.1588  0.0574 -1.0974
 3764WAT      O11502   0.449   1.000   1.431 -0.1103 -0.5152 -0.1194
 3764WAT     H111503   0.412   1.074   1.480 -0.8619 -0.8803 -0.1244
 3764WAT     H211504   0.491   0.946   1.498  2.0694  0.8058 -0.3042
 3765WAT      O11505   0.593   5.630   1.819 -0.5945 -0.9402  0.1152
 3765WAT     H111506   0.674   5.597   1.780 -0.3472  0.4608 -0.6400
 3765WAT     H211507   0.609   5.627   1.913  0.9412  0.6416 -0.0309
 3766WAT      O11508   2.438   1.622   3.276 -0.2327  0.2570  0.0629
 3766WAT     H111509   2.438   1.707   3.231  3.5790  0.3758  0.0179
 3766WAT     H211510   2.416   1.559   3.208 -0.2068  0.9435 -0.5930
 3767WAT      O11511   1.749   2.382   1.756 -0.0639  0.0910 -0.4022
 3767WAT     H111512   1.816   2.417   1.815  0.1697  0.7834 -1.0582
 3767WAT     H211513   1.671   2.373   1.811  0.3548  0.0271  0.1833
 3768WAT      O11514   4.078   1.129   1.976  0.2029  0.0039 -0.1439
 3768WAT     H111515   4.018   1.127   2.050  1.5578  3.2486  1.2518
 3768WAT     H211516   4.028   1.174   1.907  0.0890  0.1722  0.0459
 3769WAT      O11517   0.566   4.369   1.614  0.7532  0.4107 -0.3737
 3769WAT     H111518   0.499   4.322   1.564  0.8749 -0.5808  0.3706
 3769WAT     H211519   0.633   4.392   1.549  0.0134  0.8380 -1.0048
 3770WAT      O11520   3.976   4.376   2.398 -0.3333  0.0296 -0.4319
 3770WAT     H111521   4.030   4.454   2.403 -0.1175 -0.0882 -0.8276
 3770WAT     H211522   3.914   4.395   2.327  0.2827 -0.4894 -1.1320
 3771WAT      O11523   4.639   2.187   3.805 -0.4855 -0.0055 -0.2957
 3771WAT     H111524   4.709   2.232   3.759 -0.6596 -0.0454 -0.6056
 3771WAT     H211525   4.658   2.200   3.898 -0.3457  0.4083 -0.3809
 3772WAT      O11526   3.094   1.245   4.094 -0.9890  0.2567 -0.4974
 3772WAT     H111527   3.105   1.271   4.185  0.6574 -0.7594 -0.3747
 3772WAT     H211528   3.013   1.288   4.067 -2.3484 -0.6348  1.8728
 3773WAT      O11529   2.125   5.576   1.896  0.8821  0.1241  0.1318
 3773WAT     H111530   2.078   5.495   1.876 -1.1218  0.9986  1.0203
 3773WAT     H211531   2.140   5.617   1.811  0.3826 -0.3655 -0.1969
 3774WAT      O11532   1.326   3.019   4.512  0.3806  0.4723  0.4954
 3774WAT     H111533   1.368   3.100   4.540  0.9394  0.3592 -0.0129
 3774WAT     H211534   1.398   2.965   4.479  0.1794 -0.6499  1.8077
 3775WAT      O11535   3.428   2.191   0.834 -0.7448  0.0928  0.2386
 3775WAT     H111536   3.468   2.253   0.895  1.1151  0.5581 -1.3424
 3775WAT     H211537   3.436   2.106   0.878  2.7521  0.0454 -0.2065
 3776WAT      O11538   1.264   3.549   3.259 -0.6458 -0.2086 -0.8296
 3776WAT     H111539   1.314   3.628   3.282 -0.6433  0.1257 -1.9060
 3776WAT     H211540   1.201   3.539   3.330  2.0453 -1.6689  1.5628
 3777WAT      O11541   2.897   1.317   3.321  0.2744  0.1681  0.1389
 3777WAT     H111542   2.892   1.234   3.274 -1.1024 -0.2052  0.8994
 3777WAT     H211543   2.972   1.307   3.380  0.8736 -0.0476 -0.6433
 3778WAT      O11544   0.579   4.449   2.292 -0.0196 -0.3626  0.4237
 3778WAT     H111545   0.549   4.370   2.337  0.1532 -0.2683  0.7086
 3778WAT     H211546   0.505   4.510   2.300  0.9261  0.5931  2.9049
 3779WAT      O11547   1.232   2.355   3.103 -0.4369 -0.3571 -0.0792
 3779WAT     H111548   1.303   2.416   3.085 -2.2249  0.9671 -3.4682
 3779WAT     H211549   1.276   2.272   3.124  2.0652  0.7578 -0.6022
 3780WAT      O11550   0.848   0.539   3.835  0.1318 -0.2732  0.0250
 3780WAT     H111551   0.847   0.631   3.859  0.2869 -0.2913  0.1040
 3780WAT     H211552   0.876   0.538   3.743  1.0465 -0.2927  0.2887
 3781WAT      O11553   3.273   2.600   3.167 -0.0216 -0.4972 -0.1480
 3781WAT     H111554   3.266   2.612   3.072  2.2454 -3.0101 -0.7655
 3781WAT     H211555   3.271   2.689   3.202 -1.5361  0.4940 -2.4376
 3782WAT      O11556   2.035   4.210   3.652 -0.3372 -0.4552 -0.4213
 3782WAT     H111557   1.991   4.125   3.656  0.8435 -1.0641  2.7393
 3782WAT     H211558   2.126   4.190   3.677 -0.0770  1.7505  0.5856
 3783WAT      O11559   1.274   1.775   0.971  0.7033  0.5841 -0.1861
 3783WAT     H111560   1.248   1.860   1.006 -0.1645  1.4994 -2.8303
 3783WAT     H211561   1.205   1.715   0.999  1.0043  0.8547  1.1875
 3784WAT      O11562   4.978   1.241   3.355 -0.4273  0.1037  0.0309
 3784WAT     H111563   4.938   1.199   3.278  2.4540 -0.4653 -1.2948
 3784WAT     H211564   5.002   1.329   3.324 -0.2471  0.2767  0.6475
 3785WAT      O11565   2.833   2.545   0.165  0.2170 -0.4148 -0.9385
 3785WAT     H111566   2.864   2.610   0.229  0.1867 -0.5517 -0.7847
 3785WAT     H211567   2.896   2.474   0.170 -1.1997 -1.6322  0.8675
 3786WAT      O11568   3.196   2.355   2.947  0.5680 -0.2101 -0.3211
 3786WAT     H111569   3.216   2.374   2.855 -0.0573 -1.4607 -0.7408
 3786WAT     H211570   3.276   2.377   2.994  0.4151  1.8745 -0.9385
 3787WAT      O11571   3.494   2.853   3.519 -0.4761  0.1752  0.0792
 3787WAT     H111572   3.544   2.800   3.581 -1.4688 -1.1521 -0.2204
 3787WAT     H211573   3.554   2.868   3.446 -0.5645 -1.6610 -0.4148
 3788WAT      O11574   3.018   0.253   3.203 -0.7323  0.3757  0.0693
 3788WAT     H111575   2.954   0.221   3.138 -0.6165  1.1837 -0.4519
 3788WAT     H211576   3.059   0.329   3.161  0.0701  0.2970  0.6890
 3789WAT      O11577   4.390   1.180   4.777  0.6352 -0.0976 -0.0504
 3789WAT     H111578   4.455   1.134   4.724  1.2206 -0.1181  0.6592
 3789WAT     H211579   4.348   1.112   4.829  0.0003 -0.0893 -0.5331
 3790WAT      O11580   4.891   2.833   4.261  0.0156 -0.2426  0.5012
 3790WAT     H111581   4.984   2.826   4.238  0.5232 -0.7175  2.5114
 3790WAT     H211582   4.885   2.794   4.348 -1.9659  0.3586  0.6745
 3791WAT      O11583   0.987   4.447   3.353 -0.5269 -0.1711  0.0272
 3791WAT     H111584   0.938   4.517   3.309  0.9360  2.5654  2.3777
 3791WAT     H211585   0.920   4.399   3.403 -1.2407  2.0627  1.4014
 3792WAT      O11586   3.981   1.789   2.855  0.0617 -0.3002 -0.0690
 3792WAT     H111587   3.889   1.769   2.875  0.0137 -0.0536 -0.0465
 3792WAT     H211588   4.005   1.724   2.789 -0.4298  0.2698 -0.8325
 3793WAT      O11589   4.655   0.500   4.329  0.2754 -0.1992 -0.3235
 3793WAT     H111590   4.677   0.407   4.340 -0.5248 -0.5468 -1.4679
 3793WAT     H211591   4.738   0.546   4.341  0.9969 -1.1973 -1.2842
 3794WAT      O11592   2.055   0.064   3.465 -0.0128  0.5566 -0.2392
 3794WAT     H111593   2.022   0.019   3.387  0.7770 -0.7099  0.1354
 3794WAT     H211594   1.991   0.044   3.533  1.0048 -1.1627  0.2631
 3795WAT      O11595   0.636   3.827   4.758  0.1974  0.4947  0.0911
 3795WAT     H111596   0.614   3.795   4.671 -1.9798 -0.3914  0.8907
 3795WAT     H211597   0.649   3.921   4.747 -0.5077  0.4723 -1.1287
 3796WAT      O11598   2.215   1.003   4.226  0.0016 -0.2122 -0.2023
 3796WAT     H111599   2.240   0.936   4.289 -0.2127  0.0325  0.1490
 3796WAT     H211600   2.147   0.962   4.172 -0.8032  0.0121  0.6057
 3797WAT      O11601   2.768   1.789   2.724 -0.5064  0.5414 -0.1282
 3797WAT     H111602   2.729   1.701   2.722 -0.4357  0.5101 -0.1010
 3797WAT     H211603   2.793   1.803   2.815  0.4393  0.1729 -0.3189
 3798WAT      O11604   0.870   1.660   2.693 -0.1835 -0.0530 -0.4720
 3798WAT     H111605   0.932   1.681   2.762 -0.8844  0.8393 -0.1019
 3798WAT     H211606   0.797   1.619   2.738  0.3272 -1.5769 -0.9641
 3799WAT      O11607   3.104   1.696   2.966  0.4469  0.1170 -0.5467
 3799WAT     H111608   3.163   1.636   3.012 -0.0023  0.8895  1.0932
 3799WAT     H211609   3.017   1.674   2.998  0.2253  1.3056 -0.2970
 3800WAT      O11610   0.152   0.819   2.364 -0.0078 -1.2677  0.6088
 3800WAT     H111611   0.070   0.819   2.414 -0.2219 -0.1096  0.2896
 3800WAT     H211612   0.219   0.799   2.428 -0.5352 -2.2603  0.8725
 3801WAT      O11613   2.842   1.890   1.567  0.6170 -0.1487 -0.5852
 3801WAT     H111614   2.864   1.916   1.656 -1.4593  0.0446 -0.0628
 3801WAT     H211615   2.825   1.796   1.572  2.4460 -0.5534 -1.2436
 3802WAT      O11616   1.012   2.365   3.323  0.2605 -0.2576 -0.1557
 3802WAT     H111617   1.024   2.402   3.410 -1.7820 -0.7662  0.3901
 3802WAT     H211618   1.090   2.392   3.275  0.9457  0.9114  1.5100
 3803WAT      O11619   0.931   2.229   0.076  0.3901 -0.1487 -0.1922
 3803WAT     H111620   0.854   2.279   0.049 -0.1565  0.3334  2.0840
 3803WAT     H211621   0.914   2.205   0.167  2.0450 -1.8119 -0.2544
 3804WAT      O11622   2.081   3.819   5.382 -0.2986 -0.4193  0.2897
 3804WAT     H111623   2.110   3.798   5.471 -0.8902 -0.3715  0.4979
 3804WAT     H211624   2.056   3.912   5.387  0.5153 -0.1709 -0.1534
 3805WAT      O11625   3.961   1.782   3.665 -0.4214 -0.1080  0.0706
 3805WAT     H111626   3.918   1.737   3.592 -0.4892  1.2428 -0.7675
 3805WAT     H211627   4.052   1.790   3.638 -0.5902  1.0325 -0.2236
 3806WAT      O11628   1.097   2.480   3.545 -0.0527 -0.0027  0.1162
 3806WAT     H111629   1.064   2.464   3.634 -3.2184  1.8038 -0.5728
 3806WAT     H211630   1.103   2.575   3.539 -0.0217 -0.0847 -1.6538
 3807WAT      O11631   3.141   0.970   1.171 -0.2004  0.6534  0.0200
 3807WAT     H111632   3.196   1.047   1.185  0.6158 -0.1326  1.3834
 3807WAT     H211633   3.084   0.967   1.247  0.4132 -0.5874  0.4527
 3808WAT      O11634   0.708   3.711   2.441 -0.3020  0.0683  0.6538
 3808WAT     H111635   0.788   3.763   2.448  0.2352 -0.7478  0.6890
 3808WAT     H211636   0.653   3.761   2.381  0.4419  0.3835  0.2136
 3809WAT      O11637   1.542   2.980   4.899 -0.1373 -0.7418 -0.2660
 3809WAT     H111638   1.550   2.989   4.994 -1.8768 -0.6333 -0.1019
 3809WAT     H211639   1.463   3.029   4.876  0.3791 -0.5558 -1.8144
 3810WAT      O11640   0.204   1.232   4.467 -0.3545  0.1428  0.3517
 3810WAT     H111641   0.152   1.154   4.444 -0.0666 -0.1898  0.8044
 3810WAT     H211642   0.219   1.223   4.561  0.1217  0.4856  0.3101
 3811WAT      O11643   1.912   5.467   2.681 -0.0123  0.0521 -0.3945
 3811WAT     H111644   1.964   5.402   2.729 -1.3561 -0.3934  0.5250
 3811WAT     H211645   1.844   5.415   2.637 -1.0058  0.8060  0.2123
 3812WAT      O11646   2.821   3.593   4.505  0.0420 -0.1351  0.0667
 3812WAT     H111647   2.894   3.654   4.502 -0.3021  0.3148  0.5401
 3812WAT     H211648   2.812   3.570   4.597  0.1507 -0.8892 -0.1033
 3813WAT      O11649   4.397   1.415   3.105 -0.0475 -0.0057 -0.9941
 3813WAT     H111650   4.369   1.323   3.106  2.6397 -0.9251  0.6124
 3813WAT     H211651   4.453   1.423   3.029  0.6615 -0.0437 -0.4858
 3814WAT      O11652   4.775   1.664   2.950  0.4491 -0.0039 -0.0738
 3814WAT     H111653   4.863   1.701   2.950  0.9599 -1.1248  1.1540
 3814WAT     H211654   4.759   1.639   2.858  0.8665  1.3768 -0.5427
 3815WAT      O11655   4.086   2.336   3.215 -0.0061  0.5773 -0.2935
 3815WAT     H111656   4.005   2.369   3.177 -0.3239  0.2930  0.1112
 3815WAT     H211657   4.080   2.360   3.308  1.1594  2.0374 -0.5673
 3816WAT      O11658   1.482   0.888   1.800 -0.3884  0.0718  0.0696
 3816WAT     H111659   1.411   0.847   1.849 -1.0576 -0.0202 -0.9501
 3816WAT     H211660   1.542   0.920   1.867 -1.0724 -0.4164  0.9327
 3817WAT      O11661   3.123   0.865   2.133  0.5099  0.5716 -0.1722
 3817WAT     H111662   3.036   0.883   2.169  1.2836  2.9565  0.6623
 3817WAT     H211663   3.129   0.920   2.055  0.9579 -0.2967 -0.7737
 3818WAT      O11664   1.804   1.888   2.866 -0.5044  0.7409  0.2169
 3818WAT     H111665   1.778   1.799   2.843 -0.3471  1.1163 -1.5262
 3818WAT     H211666   1.767   1.942   2.797 -0.7118  2.0554  1.3287
 3819WAT      O11667   0.587   4.266   2.947 -0.0505  0.4519  0.1958
 3819WAT     H111668   0.639   4.316   2.884 -0.3155 -0.7730 -1.0655
 3819WAT     H211669   0.649   4.247   3.018  0.5894  0.9233 -0.2179
 3820WAT      O11670   4.210   3.551   4.863  0.1654 -0.1363  0.1669
 3820WAT     H111671   4.136   3.518   4.914  0.2380  0.1209  0.4403
 3820WAT     H211672   4.285   3.502   4.895  0.5613  1.4227  1.7406
 3821WAT      O11673   3.925   2.154   3.672  0.7113  0.1416 -0.0195
 3821WAT     H111674   3.933   2.201   3.755 -0.2612 -1.3307  0.9490
 3821WAT     H211675   3.867   2.081   3.691  1.5366 -1.0130 -1.6664
 3822WAT      O11676   2.585   5.218   2.030 -0.0230 -0.2228  0.8219
 3822WAT     H111677   2.534   5.287   1.987  2.1609  1.3547  0.5738
 3822WAT     H211678   2.606   5.156   1.959  0.4049  0.3994  0.3884
 3823WAT      O11679   4.624   2.030   5.111  0.4972  1.4098  0.5103
 3823WAT     H111680   4.656   2.094   5.174  1.1948  0.4095  1.1986
 3823WAT     H211681   4.592   1.957   5.164 -0.5436  1.2877 -0.2479
 3824WAT      O11682   4.316   0.615   1.326  0.5556 -0.3646 -0.8474
 3824WAT     H111683   4.324   0.577   1.238 -0.4379  1.1164 -1.6141
 3824WAT     H211684   4.269   0.697   1.313  1.1470  0.3191  0.9765
 3825WAT      O11685   1.515   4.468   2.066 -0.4383 -0.2182  0.1285
 3825WAT     H111686   1.423   4.469   2.090 -1.2606 -2.1413 -2.3690
 3825WAT     H211687   1.516   4.500   1.975  1.0284 -1.9458 -0.5294
 3826WAT      O11688   4.421   4.395   2.841  0.3970 -0.0076  0.5788
 3826WAT     H111689   4.457   4.385   2.929 -0.3554  1.6097  1.0920
 3826WAT     H211690   4.487   4.446   2.794  0.2815  0.1145  0.5485
 3827WAT      O11691   4.859   1.176   3.106 -0.4117  0.5575 -0.3326
 3827WAT     H111692   4.786   1.119   3.081 -1.0022  0.4694  1.3968
 3827WAT     H211693   4.820   1.263   3.114 -0.5768  0.3574  1.4600
 3828WAT      O11694   2.770   3.764   2.667  0.0137 -0.5044 -0.2213
 3828WAT     H111695   2.752   3.731   2.755  0.6252  2.9646  1.3839
 3828WAT     H211696   2.865   3.776   2.665 -0.0470 -0.0365 -1.1817
 3829WAT      O11697   4.489   2.881   3.850  0.2882 -0.3032 -0.1551
 3829WAT     H111698   4.395   2.868   3.844  0.0214 -0.6895  3.0766
 3829WAT     H211699   4.524   2.795   3.875  1.4644 -0.0933 -0.9750
 3830WAT      O11700   4.052   1.679   1.785  0.3430  0.0534  0.1671
 3830WAT     H111701   3.990   1.659   1.855  0.7305 -0.0535  0.4835
 3830WAT     H211702   4.103   1.753   1.818  0.6305 -0.0970  0.0667
 3831WAT      O11703   3.710   4.279   2.214 -0.1050 -0.5526  0.2968
 3831WAT     H111704   3.658   4.295   2.293  0.0231 -1.2505  0.5315
 3831WAT     H211705   3.730   4.367   2.180 -0.1732 -0.2477  1.0278
 3832WAT      O11706   1.343   1.738   2.013 -0.1883 -0.6092  0.2814
 3832WAT     H111707   1.364   1.831   2.003 -0.6045 -0.5588 -0.1593
 3832WAT     H211708   1.419   1.693   1.976 -0.6814 -0.4288 -1.0007
 3833WAT      O11709   4.928   0.641   4.276 -0.0584 -0.2893 -0.3413
 3833WAT     H111710   4.900   0.690   4.198  1.0639  0.2897 -0.3979
 3833WAT     H211711   4.952   0.555   4.243 -0.9096 -0.5148 -0.4143
 3834WAT      O11712   2.973   1.884   0.894  0.3473 -0.1666  0.4203
 3834WAT     H111713   2.952   1.808   0.840 -1.0246 -0.6644  1.5735
 3834WAT     H211714   2.965   1.852   0.984  1.2251  0.9794  0.9326
 3835WAT      O11715   1.711   2.486   2.151 -0.2679  0.1832  0.2650
 3835WAT     H111716   1.643   2.422   2.134 -0.1902  0.5673 -1.7114
 3835WAT     H211717   1.742   2.466   2.240 -1.0568 -1.7182  0.1410
 3836WAT      O11718   4.231   5.243   2.406 -0.0239  0.6153 -0.5017
 3836WAT     H111719   4.179   5.208   2.478 -1.1323  0.7014 -1.2369
 3836WAT     H211720   4.277   5.168   2.370  2.3451  0.8979  1.6749
 3837WAT      O11721   0.591   4.690   1.631  0.0255 -0.6616 -0.0979
 3837WAT     H111722   0.648   4.732   1.566  0.5094 -0.4637  0.4468
 3837WAT     H211723   0.588   4.598   1.605  0.0603 -0.5501 -0.5057
 3838WAT      O11724   0.830   2.966   2.459 -0.5438 -0.0227  0.4379
 3838WAT     H111725   0.782   2.918   2.526 -0.0762 -1.6442 -0.3369
 3838WAT     H211726   0.920   2.968   2.491 -0.3496 -0.6642 -0.0373
 3839WAT      O11727   4.084   2.206   4.188  0.0885 -0.3693  0.1285
 3839WAT     H111728   4.020   2.204   4.259 -0.8559 -0.7048 -0.7137
 3839WAT     H211729   4.063   2.130   4.134  0.6795 -0.0280 -0.6108
 3840WAT      O11730   1.178   1.638   2.678  0.2231  0.3509  1.0526
 3840WAT     H111731   1.239   1.583   2.728  1.3576  0.0665 -0.5644
 3840WAT     H211732   1.162   1.714   2.734  0.2359 -0.6610  2.4721
 3841WAT      O11733   0.662   0.563   2.612  0.1761 -0.7073  0.3399
 3841WAT     H111734   0.702   0.633   2.665  0.4226  0.1900 -0.9652
 3841WAT     H211735   0.584   0.604   2.575 -0.5376 -1.6404  0.7878
 3842WAT      O11736   1.525   0.438   1.446  0.4709 -0.0833  0.6200
 3842WAT     H111737   1.584   0.420   1.520 -0.4807 -0.9899  1.1922
 3842WAT     H211738   1.582   0.444   1.370  1.2955 -1.0473  1.1431
 3843WAT      O11739   1.898   0.860   3.116 -0.2033  0.7762  0.1544
 3843WAT     H111740   1.943   0.822   3.040  0.6688  1.3635  0.3579
 3843WAT     H211741   1.969   0.879   3.178 -0.9354 -0.1757  1.3416
 3844WAT      O11742   0.844   5.508   3.622  0.3632 -0.3944  0.8953
 3844WAT     H111743   0.812   5.430   3.669 -2.1104  0.1447  0.2485
 3844WAT     H211744   0.788   5.579   3.653  1.9095  0.9568  0.7027
 3845WAT      O11745  -0.005   1.515   3.568  0.3531  0.7804  0.1856
 3845WAT     H111746   0.069   1.456   3.552 -0.1185  0.4535 -0.8723
 3845WAT     H211747   0.035   1.593   3.605  1.0622  0.0633  0.9930
 3846WAT      O11748   4.917   1.859   0.489 -0.1680 -0.0523  0.0994
 3846WAT     H111749   4.839   1.911   0.506 -1.2116 -0.9629 -1.5969
 3846WAT     H211750   4.946   1.886   0.401 -1.6374 -3.2190 -1.5350
 3847WAT      O11751   3.373   1.517   2.165 -0.4543  0.2407 -0.4510
 3847WAT     H111752   3.337   1.429   2.180  0.1031  0.2084  0.8484
 3847WAT     H211753   3.394   1.518   2.072 -1.0317 -0.7946 -0.6131
 3848WAT      O11754   0.341   2.349   1.664 -0.5550  0.2406  0.1823
 3848WAT     H111755   0.415   2.411   1.666 -1.5789  1.5505  2.5359
 3848WAT     H211756   0.380   2.265   1.686  0.6085  0.3659 -1.2652
 3849WAT      O11757   4.616   3.396   2.035 -0.3340  0.1713  0.0216
 3849WAT     H111758   4.649   3.485   2.026  0.7350 -0.2222 -0.0928
 3849WAT     H211759   4.565   3.382   1.955  0.5802  0.2410 -0.5915
 3850WAT      O11760   3.775   1.009   3.569  0.0315  0.2388 -0.2299
 3850WAT     H111761   3.794   1.000   3.476  0.4417  1.4969 -0.2940
 3850WAT     H211762   3.717   0.935   3.590 -1.0374  0.6113 -1.7347
 3851WAT      O11763   1.265   0.528   2.825 -0.2973 -0.0732  0.2227
 3851WAT     H111764   1.287   0.475   2.901  1.5402  0.1849 -0.0731
 3851WAT     H211765   1.295   0.477   2.750 -0.4491  0.4494 -0.2034
 3852WAT      O11766   0.376   1.252   0.807 -0.1057  0.4625 -0.5761
 3852WAT     H111767   0.318   1.198   0.860 -1.0692  1.4200 -0.6320
 3852WAT     H211768   0.368   1.339   0.844 -0.3224  1.0266 -1.9023
 3853WAT      O11769   4.842   2.290   1.369 -0.0961 -0.3855  0.3624
 3853WAT     H111770   4.869   2.370   1.415 -0.8900 -0.0510  0.2640
 3853WAT     H211771   4.923   2.238   1.363  0.7948  1.0567 -0.8929
 3854WAT      O11772   2.624   1.857   1.067 -0.2770 -0.2098  0.5417
 3854WAT     H111773   2.667   1.799   1.004 -0.2736  0.4770 -0.1068
 3854WAT     H211774   2.695   1.892   1.120 -0.4320 -2.1562  2.1533
 3855WAT      O11775   0.457   0.534   3.382 -0.2493 -0.2396  0.0556
 3855WAT     H111776   0.478   0.556   3.473 -0.8757  2.6306 -0.3846
 3855WAT     H211777   0.542   0.531   3.338  0.1043 -2.1924  0.7661
 3856WAT      O11778   0.674   4.577   3.415 -0.1717  0.4107 -0.3915
 3856WAT     H111779   0.589   4.619   3.428 -0.0816  0.5917 -0.3922
 3856WAT     H211780   0.690   4.586   3.321 -1.2499 -1.6915 -0.8378
 3857WAT      O11781   0.012   3.660   4.639  0.1242 -0.4893  0.2977
 3857WAT     H111782  -0.015   3.598   4.571  1.1728 -2.3621  1.4874
 3857WAT     H211783   0.070   3.721   4.594  2.2450 -2.7526 -0.2248
 3858WAT      O11784   1.722   3.641   2.750  0.1166 -0.7107  0.6837
 3858WAT     H111785   1.677   3.585   2.686  0.2691  1.0462 -1.0512
 3858WAT     H211786   1.787   3.689   2.698 -0.2849  1.3674  1.9954
 3859WAT      O11787   1.442   3.543   3.554  0.0672 -0.1111 -0.7319
 3859WAT     H111788   1.427   3.582   3.639  2.5420 -1.0547  0.2378
 3859WAT     H211789   1.437   3.616   3.492  0.0207  0.9128  0.4552
 3860WAT      O11790   3.849   3.328   1.427 -0.0184 -0.1866  0.1621
 3860WAT     H111791   3.925   3.294   1.379  0.4799  2.0768 -0.7921
 3860WAT     H211792   3.886   3.377   1.500 -0.4264  1.8965 -0.9503
 3861WAT      O11793   3.922   4.258   1.004 -0.0917 -0.3157 -0.3547
 3861WAT     H111794   4.005   4.229   0.967  0.7891  1.8326 -0.2296
 3861WAT     H211795   3.941   4.273   1.097 -0.5462  0.4143 -0.3739
 3862WAT      O11796   3.340   2.409   4.056  0.1458  0.0595  0.0401
 3862WAT     H111797   3.423   2.404   4.008  0.2187  0.2719  0.1448
 3862WAT     H211798   3.296   2.326   4.036 -0.1816  0.4701 -1.0288
 3863WAT      O11799   1.534   2.595   5.316 -0.0588  0.0587 -0.0891
 3863WAT     H111800   1.573   2.644   5.389 -1.8151  2.6717 -0.7733
 3863WAT     H211801   1.454   2.558   5.353  0.3451 -0.8031 -0.0585
 3864WAT      O11802   0.166   2.464   1.138  0.0990  0.1858 -0.6736
 3864WAT     H111803   0.109   2.493   1.208  2.3313 -0.0245  1.3829
 3864WAT     H211804   0.178   2.541   1.082  0.3528  1.1859  0.7102
 3865WAT      O11805   5.011   0.054   2.569 -0.9857  0.1824 -0.0352
 3865WAT     H111806   4.958  -0.018   2.604 -1.2866 -0.6760 -2.0892
 3865WAT     H211807   4.956   0.094   2.502  0.4649  0.0111 -1.4099
 3866WAT      O11808   2.086   1.864   0.650  0.3356 -0.6756 -0.6458
 3866WAT     H111809   2.140   1.845   0.727 -0.4039 -0.5202 -0.0809
 3866WAT     H211810   2.017   1.920   0.682  0.2931 -0.1966 -1.5360
 3867WAT      O11811   3.051   0.146   2.507 -0.3107 -0.2751 -0.1996
 3867WAT     H111812   3.071   0.188   2.424  1.1322 -0.4067  0.0666
 3867WAT     H211813   2.998   0.211   2.554  2.5522  1.7100  0.5478
 3868WAT      O11814   1.773   4.673   4.103  1.1401 -0.0055  0.1385
 3868WAT     H111815   1.701   4.733   4.123 -1.2605 -2.3516 -0.8755
 3868WAT     H211816   1.829   4.723   4.043 -1.2988  0.9786 -1.5185
 3869WAT      O11817   3.102   1.209   1.954  0.3790 -0.1581 -0.0875
 3869WAT     H111818   3.141   1.251   2.031  1.7453 -0.6862 -0.4639
 3869WAT     H211819   3.174   1.205   1.890 -0.0493 -1.9535 -0.5023
 3870WAT      O11820   4.799   1.756   3.910  0.1430  0.7544  0.3829
 3870WAT     H111821   4.760   1.825   3.964  0.5605  1.7816 -0.6007
 3870WAT     H211822   4.880   1.733   3.956 -0.5522  0.0854  1.3161
 3871WAT      O11823   3.738   2.696   5.416 -0.8203 -0.1699 -0.4668
 3871WAT     H111824   3.684   2.658   5.346 -0.9497 -2.8076  0.9394
 3871WAT     H211825   3.825   2.704   5.378 -0.9736 -1.1961 -1.0698
 3872WAT      O11826   1.285   0.079   2.673 -0.5510 -0.1031  0.5081
 3872WAT     H111827   1.360   0.022   2.690  1.0465  1.1807 -1.7427
 3872WAT     H211828   1.228   0.027   2.617  0.2950  0.0144 -0.4971
 3873WAT      O11829   1.594   0.074   2.577 -0.2816 -0.9140 -0.2297
 3873WAT     H111830   1.589   0.091   2.483 -0.5095 -0.2673 -0.1065
 3873WAT     H211831   1.610  -0.020   2.583  3.2384 -0.4848 -0.9861
 3874WAT      O11832   1.224   3.994   3.196 -0.1795  0.1156  0.0821
 3874WAT     H111833   1.207   4.088   3.191  0.5546  0.1898 -1.4383
 3874WAT     H211834   1.316   3.984   3.172 -0.3490 -1.0213 -0.1691
 3875WAT      O11835   2.422   1.272   0.502 -1.0237  0.2147 -0.1587
 3875WAT     H111836   2.335   1.241   0.479 -0.0881 -1.5448 -1.5102
 3875WAT     H211837   2.454   1.316   0.424 -0.6360  0.7297  0.2786
 3876WAT      O11838   0.866   4.240   4.940 -0.0812  0.3478  0.1755
 3876WAT     H111839   0.819   4.271   5.017 -0.4883  0.5379 -0.1477
 3876WAT     H211840   0.924   4.313   4.917 -1.8259  1.3619 -1.2416
 3877WAT      O11841   0.028   2.967   1.217 -0.8200  0.2922 -0.4589
 3877WAT     H111842  -0.020   3.023   1.278 -0.2764  0.5195 -0.2319
 3877WAT     H211843   0.086   3.027   1.170 -0.1015 -0.0978 -0.0862
 3878WAT      O11844   1.302   2.796   1.709  0.2465 -0.0340  0.1114
 3878WAT     H111845   1.297   2.729   1.641 -0.0247  0.8887 -0.8088
 3878WAT     H211846   1.294   2.748   1.791  1.2602 -1.2558 -0.4675
 3879WAT      O11847   0.690   1.748   1.507 -0.3238 -0.6253  0.0568
 3879WAT     H111848   0.619   1.807   1.532  1.2318  0.9901  0.8752
 3879WAT     H211849   0.706   1.695   1.586 -1.2987 -1.7811 -0.4793
 3880WAT      O11850   4.921   1.110   2.471  0.2945  0.4917 -0.3315
 3880WAT     H111851   4.998   1.147   2.429 -0.0516 -0.1901 -1.6343
 3880WAT     H211852   4.892   1.040   2.412 -0.2002 -0.5579  1.0822
 3881WAT      O11853   4.872   5.497   3.170  0.0594 -0.7332  0.4392
 3881WAT     H111854   4.812   5.555   3.124 -0.1113 -2.1585 -1.2461
 3881WAT     H211855   4.816   5.443   3.226 -0.1189 -1.2292 -0.2056
 3882WAT      O11856   4.006   2.586   4.612  0.0582 -0.4324 -0.1511
 3882WAT     H111857   4.100   2.585   4.592  0.3954 -0.2630  1.3258
 3882WAT     H211858   3.969   2.519   4.555  1.0101 -0.2353 -1.0317
 3883WAT      O11859   0.636   0.901   1.042 -0.1176  0.0154  0.0763
 3883WAT     H111860   0.698   0.832   1.068  0.2623  0.9964  1.9364
 3883WAT     H211861   0.553   0.855   1.032  0.7391 -1.2560 -2.0261
 3884WAT      O11862   4.623   0.745   1.753  0.2827  0.0789 -0.3602
 3884WAT     H111863   4.702   0.694   1.734  0.3108 -0.7630  1.7360
 3884WAT     H211864   4.656   0.833   1.772  0.7029 -0.1837  0.1740
 3885WAT      O11865   3.229   1.413   3.421 -0.7575  0.1078  0.6256
 3885WAT     H111866   3.166   1.365   3.474 -1.0211 -0.6421 -0.3353
 3885WAT     H211867   3.294   1.347   3.396 -0.3616  0.5644  0.4425
 3886WAT      O11868   0.887   4.984   2.542 -0.1473 -0.1208 -0.0045
 3886WAT     H111869   0.920   4.906   2.497  0.8174  0.0562  0.3777
 3886WAT     H211870   0.802   4.957   2.576  0.0008 -0.8883 -0.2155
 3887WAT      O11871   1.483   2.054   0.617 -0.0974  0.1392 -0.2463
 3887WAT     H111872   1.568   2.010   0.626 -0.9842 -1.6606 -0.1622
 3887WAT     H211873   1.467   2.091   0.704  0.5269  0.3659 -0.2185
 3888WAT      O11874   1.626   4.202   1.839  0.2410 -0.0607  0.2827
 3888WAT     H111875   1.571   4.280   1.831  0.4186  0.1869  1.2982
 3888WAT     H211876   1.624   4.181   1.932 -0.5243 -1.8211 -0.1001
 3889WAT      O11877   3.661   5.506   3.273 -0.1117  0.1772 -0.2836
 3889WAT     H111878   3.694   5.469   3.355 -1.2945 -1.1739 -0.3774
 3889WAT     H211879   3.719   5.470   3.206  1.4463  2.0218 -0.0245
 3890WAT      O11880   3.340   1.149   1.264  0.0656  0.3810  0.1623
 3890WAT     H111881   3.415   1.187   1.218 -0.5855 -0.8105 -2.0645
 3890WAT     H211882   3.379   1.087   1.326  0.9702 -0.4008 -1.1243
 3891WAT      O11883   3.990   2.087   2.237 -0.0501  0.3270 -0.5332
 3891WAT     H111884   3.939   2.050   2.165 -0.3712  1.3686 -0.8656
 3891WAT     H211885   3.974   2.029   2.311 -1.8129  0.6783 -0.5979
 3892WAT      O11886   1.480   5.042   1.149 -0.2091  0.1917  0.1634
 3892WAT     H111887   1.536   5.085   1.212 -1.0695 -1.8230  2.4947
 3892WAT     H211888   1.396   5.087   1.157  0.1226  1.0253 -0.8436
 3893WAT      O11889   0.788   1.498   0.712  0.2843  0.3627 -0.4696
 3893WAT     H111890   0.834   1.547   0.781 -1.4277  0.4435  0.6519
 3893WAT     H211891   0.763   1.416   0.753 -1.6959  0.8503 -0.6357
 3894WAT      O11892   0.228   2.175   0.432  0.0441  0.6678  0.1280
 3894WAT     H111893   0.306   2.127   0.404 -0.5528 -0.8357  0.8984
 3894WAT     H211894   0.205   2.230   0.357  0.0964 -1.1537 -1.2952
 3895WAT      O11895   0.168   3.375   4.794 -0.1099 -0.3423 -0.0590
 3895WAT     H111896   0.114   3.372   4.715 -0.6992 -2.3382  0.3574
 3895WAT     H211897   0.257   3.388   4.761 -0.5171  0.3365 -0.9383
 3896WAT      O11898   0.070   3.085   0.052  0.1973 -0.5606 -1.1108
 3896WAT     H111899   0.066   3.075   0.147 -0.5975 -1.7946 -1.2600
 3896WAT     H211900   0.044   3.176   0.037 -3.6197 -1.3843 -0.3606
 3897WAT      O11901   4.092   3.626   2.621  0.1951 -0.2206  0.4185
 3897WAT     H111902   4.165   3.619   2.559  0.3715 -0.5204  0.6621
 3897WAT     H211903   4.030   3.560   2.591  0.7650 -1.1310  1.2205
 3898WAT      O11904   0.507   2.024   2.930  0.0478  0.0181 -0.8751
 3898WAT     H111905   0.448   2.085   2.886 -1.1733 -0.2456  0.3208
 3898WAT     H211906   0.526   2.066   3.014  1.9353  0.2903 -1.3810
 3899WAT      O11907   2.499   4.364   3.828  0.0052 -0.4135 -0.4965
 3899WAT     H111908   2.473   4.282   3.869 -0.1700 -0.0459  0.1423
 3899WAT     H211909   2.419   4.416   3.826  0.3013  0.0781 -0.0708
 3900WAT      O11910   3.139   2.807   2.094  0.1328  0.1410  0.2592
 3900WAT     H111911   3.097   2.751   2.029  1.1742 -1.3971  0.8439
 3900WAT     H211912   3.076   2.813   2.166  0.4317 -1.2616  0.6723
 3901WAT      O11913   0.907   1.167   4.507 -0.1993 -0.0735  0.1011
 3901WAT     H111914   0.939   1.158   4.597  0.7794 -0.6919 -0.2890
 3901WAT     H211915   0.917   1.260   4.487  1.0214 -0.1720  0.1388
 3902WAT      O11916   4.714   1.957   4.089  0.4958  0.5488 -0.4792
 3902WAT     H111917   4.685   1.969   4.179 -0.3904 -0.5105 -0.6004
 3902WAT     H211918   4.716   2.045   4.052  1.9637  1.1409  0.8683
 3903WAT      O11919   4.412   2.113   2.801  0.4098 -0.9967 -0.1027
 3903WAT     H111920   4.378   2.031   2.767  0.3726 -1.7233  1.5902
 3903WAT     H211921   4.459   2.089   2.881  0.4299  0.6152  0.4224
 3904WAT      O11922   2.061   5.198   2.239  0.4932 -0.1139 -0.0725
 3904WAT     H111923   2.145   5.209   2.194  0.8013  0.8596  0.6973
 3904WAT     H211924   2.085   5.189   2.332 -0.1650 -1.4519 -0.0086
 3905WAT      O11925   1.753   4.231   5.533  0.6486 -0.0346  0.0505
 3905WAT     H111926   1.795   4.153   5.570  0.6433  0.1312  0.4095
 3905WAT     H211927   1.687   4.256   5.598 -0.7329 -0.8912 -0.9731
 3906WAT      O11928   2.133   2.856   3.935  0.3746 -0.3421 -0.1178
 3906WAT     H111929   2.107   2.850   4.027  0.2818 -0.1140 -0.1297
 3906WAT     H211930   2.087   2.784   3.892  0.3771 -0.4169  0.0050
 3907WAT      O11931   3.874   2.614   2.095  0.9515 -0.8547 -1.0166
 3907WAT     H111932   3.889   2.527   2.059  2.0591 -0.9826 -0.2822
 3907WAT     H211933   3.896   2.673   2.023  0.2936 -1.1674 -1.4838
 3908WAT      O11934   3.398   2.713   1.205  0.3704 -0.0713  0.2219
 3908WAT     H111935   3.462   2.668   1.260  0.0341 -0.1237  0.5799
 3908WAT     H211936   3.318   2.662   1.216  0.1527  0.2456  0.1293
 3909WAT      O11937   0.952   1.602   0.379  0.0652 -0.7103 -0.0644
 3909WAT     H111938   0.900   1.541   0.327  3.3949 -2.1943 -1.9394
 3909WAT     H211939   0.999   1.546   0.441  3.4741 -0.3370 -2.0689
 3910WAT      O11940   3.766   3.483   0.456  0.0871  0.1228  0.2254
 3910WAT     H111941   3.720   3.416   0.506 -0.6241  0.5941  0.2208
 3910WAT     H211942   3.729   3.477   0.368  2.9251 -2.2696 -1.0044
 3911WAT      O11943   1.863   2.698   0.830 -0.4887 -0.2837 -0.0949
 3911WAT     H111944   1.927   2.732   0.893 -0.5668 -0.8409  0.3002
 3911WAT     H211945   1.875   2.603   0.834 -2.5267 -0.5288  1.2651
 3912WAT      O11946   1.733   2.271   0.071  0.2188 -0.3288 -0.6560
 3912WAT     H111947   1.780   2.195   0.106  0.4482  0.0924 -0.0268
 3912WAT     H211948   1.675   2.297   0.143 -0.0374 -0.0654 -0.9606
 3913WAT      O11949   4.788   1.092   0.790 -0.1343 -0.4081  0.3978
 3913WAT     H111950   4.790   1.019   0.728 -2.8496  1.7382 -2.6174
 3913WAT     H211951   4.696   1.120   0.790  0.8217  3.2123  1.0358
 3914WAT      O11952   3.907   1.624   3.442  0.3108  0.7168  0.1682
 3914WAT     H111953   3.876   1.678   3.370  1.4045  2.4430  0.9197
 3914WAT     H211954   4.000   1.610   3.422  0.1043 -0.6867  0.1270
 3915WAT      O11955   0.226   2.725   1.033  0.2231  0.7519 -0.4799
 3915WAT     H111956   0.238   2.784   0.959  0.5935 -1.5993 -2.4039
 3915WAT     H211957   0.300   2.744   1.091 -0.8040  3.5613  0.0780
 3916WAT      O11958   0.902   0.541   3.107 -0.5383  0.7324  0.0340
 3916WAT     H111959   0.954   0.570   3.032  0.0996  1.0942  0.6059
 3916WAT     H211960   0.887   0.448   3.091  1.2125  0.3657  0.3799
 3917WAT      O11961   1.827   4.313   2.918 -0.2033  0.5316  0.1018
 3917WAT     H111962   1.818   4.391   2.864  1.9223  0.7980  0.0367
 3917WAT     H211963   1.855   4.346   3.004 -2.0582  0.0066  0.9591
 3918WAT      O11964   4.371   2.436   3.171 -0.1190 -0.0981 -0.9878
 3918WAT     H111965   4.313   2.502   3.208  1.3357  0.1107  1.1039
 3918WAT     H211966   4.319   2.356   3.169 -0.5050  0.0614  0.9008
 3919WAT      O11967   0.221   1.161   1.860  0.1272 -0.1085 -0.2117
 3919WAT     H111968   0.134   1.129   1.885  0.4298 -0.1182  0.8849
 3919WAT     H211969   0.254   1.203   1.939 -0.0945  2.6143 -1.4628
 3920WAT      O11970   3.762   0.498   2.155  0.0591  0.5866  0.0279
 3920WAT     H111971   3.838   0.486   2.099  1.0194  4.9957  0.0520
 3920WAT     H211972   3.693   0.447   2.113  2.2094 -1.1371 -1.6508
 3921WAT      O11973   2.162   4.191   3.308  0.4630  0.3129  0.2954
 3921WAT     H111974   2.071   4.222   3.313  0.0126 -1.0383  0.8729
 3921WAT     H211975   2.171   4.131   3.382  1.2220 -1.1393 -0.9221
 3922WAT      O11976   3.826   4.125   0.735  0.3965  0.3612  0.2116
 3922WAT     H111977   3.906   4.136   0.683  1.2230 -0.1753  1.3241
 3922WAT     H211978   3.835   4.186   0.807 -0.3038  0.4428  0.2358
 3923WAT      O11979   1.605   3.423   1.076 -0.1216 -0.3838  0.0746
 3923WAT     H111980   1.626   3.329   1.075  2.2065  0.0824  0.7333
 3923WAT     H211981   1.575   3.441   0.987  0.3893 -1.5558 -0.3578
 3924WAT      O11982   1.063   4.428   0.250  0.3735 -0.1506 -0.6255
 3924WAT     H111983   1.025   4.346   0.219  0.1252 -0.3883  0.2801
 3924WAT     H211984   1.010   4.452   0.326 -0.0971  1.2942 -1.3650
 3925WAT      O11985   4.689   3.741   2.682  0.4926  0.1658  0.0203
 3925WAT     H111986   4.729   3.827   2.693  1.7217 -0.2084 -1.2673
 3925WAT     H211987   4.701   3.698   2.766  0.8126  0.8604  0.3388
 3926WAT      O11988   3.283   0.430   2.621  0.0770  0.1582 -0.2011
 3926WAT     H111989   3.327   0.356   2.663 -0.9400 -0.8627 -0.8668
 3926WAT     H211990   3.287   0.410   2.527 -2.2554 -0.2826 -0.2661
 3927WAT      O11991   3.630   5.210   2.792 -0.9004 -0.1579  0.2917
 3927WAT     H111992   3.639   5.176   2.703 -1.1429 -0.2246  0.2930
 3927WAT     H211993   3.681   5.150   2.846  1.3766  1.2875 -0.1247
 3928WAT      O11994   2.086   1.357   2.382  0.2267  0.0628 -0.4363
 3928WAT     H111995   2.153   1.384   2.445 -1.2583 -1.3539  1.8853
 3928WAT     H211996   2.056   1.273   2.414 -1.2689 -0.2805 -2.5797
 3929WAT      O11997   2.895   1.953   5.757 -0.1903  0.4362 -0.1199
 3929WAT     H111998   2.847   1.998   5.827 -0.0183  1.0381 -0.3824
 3929WAT     H211999   2.927   2.023   5.701  0.2957 -0.0042 -0.4049
 3930WAT      O12000   2.607   3.061   1.865 -0.0371  0.0144 -0.3013
 3930WAT     H112001   2.593   3.012   1.784  0.6358  0.5603 -0.7687
 3930WAT     H212002   2.637   2.995   1.928  1.7672 -0.0785 -1.1752
 3931WAT      O12003   0.333   0.964   4.454  0.4015  0.0941 -0.0871
 3931WAT     H112004   0.262   0.900   4.454 -0.7240  1.3048 -0.9923
 3931WAT     H212005   0.398   0.927   4.393 -1.9046  1.4804 -3.7108
 3932WAT      O12006   0.761   3.106   2.877 -0.0470 -0.1167 -0.2664
 3932WAT     H112007   0.828   3.136   2.816 -0.6193  2.0773  0.1164
 3932WAT     H212008   0.678   3.131   2.836 -0.6579 -2.0583 -0.3415
 3933WAT      O12009   0.790   1.289   0.523  0.1251 -0.4422 -0.1351
 3933WAT     H112010   0.786   1.364   0.583  3.5218  0.3684 -0.7127
 3933WAT     H212011   0.714   1.236   0.545 -1.4204  2.2672  1.5329
 3934WAT      O12012   3.173   0.661   3.092  0.0978 -0.0182 -0.3698
 3934WAT     H112013   3.228   0.598   3.139  0.9767  0.4275 -0.7681
 3934WAT     H212014   3.097   0.610   3.065  0.7492 -0.9016 -0.6086
 3935WAT      O12015   0.588   2.385   4.641  0.2545 -0.1074  0.1008
 3935WAT     H112016   0.533   2.311   4.617  0.2855 -0.3786  0.8437
 3935WAT     H212017   0.567   2.452   4.577 -0.2285 -0.5448 -0.2065
 3936WAT      O12018   1.177   1.700   1.689 -0.2184 -0.0484 -0.2296
 3936WAT     H112019   1.133   1.654   1.618  1.2482 -2.0977  0.1081
 3936WAT     H212020   1.116   1.770   1.714 -2.4086 -1.5853 -1.0016
 3937WAT      O12021   3.925   1.718   2.323  0.2582  0.4914  0.0106
 3937WAT     H112022   3.884   1.634   2.343  1.8625 -0.4659 -0.6334
 3937WAT     H212023   3.903   1.773   2.399  0.3852 -0.9275  1.1157
 3938WAT      O12024   2.976   4.845   2.643  0.0472 -1.1746 -0.4595
 3938WAT     H112025   3.000   4.875   2.731  0.6117 -0.1188 -0.9486
 3938WAT     H212026   2.882   4.829   2.647  0.1826 -1.7693  0.5058
 3939WAT      O12027   3.120   3.885   1.357 -0.0252  0.3454  0.5682
 3939WAT     H112028   3.114   3.973   1.393 -1.6838  0.3099  0.4450
 3939WAT     H212029   3.033   3.866   1.324 -0.3319 -2.1687  2.4962
 3940WAT      O12030   0.747   2.097   0.318 -0.0731  0.1241 -0.2926
 3940WAT     H112031   0.661   2.091   0.361 -0.6142  0.0895 -1.3518
 3940WAT     H212032   0.810   2.072   0.386 -0.9798 -0.8911  0.1986
 3941WAT      O12033   1.564   1.303   1.966  0.4963 -0.4220 -0.3832
 3941WAT     H112034   1.656   1.313   1.990  0.5019 -1.9177  0.3458
 3941WAT     H212035   1.526   1.256   2.040 -1.1670  1.3051 -0.0695
 3942WAT      O12036   4.073   0.437   1.385  0.0199 -0.1422 -0.1367
 3942WAT     H112037   4.151   0.485   1.357 -0.1911 -0.2805 -0.9884
 3942WAT     H212038   4.001   0.475   1.334  0.0203 -2.0947 -1.7582
 3943WAT      O12039   0.907   3.827   2.618  0.6138  0.1831 -0.3401
 3943WAT     H112040   0.834   3.849   2.676  0.8528  2.5439 -0.8492
 3943WAT     H212041   0.965   3.774   2.673 -1.2782 -1.4911  0.1550
 3944WAT      O12042   0.649   1.606   1.290 -0.5795  0.2929 -0.1731
 3944WAT     H112043   0.668   1.662   1.366 -0.4049 -0.2882  0.2176
 3944WAT     H212044   0.731   1.559   1.274 -1.2114 -1.1128  0.5669
 3945WAT      O12045   1.415   5.358   3.480 -0.0040 -0.3907 -0.1012
 3945WAT     H112046   1.401   5.281   3.536 -1.8247 -0.1141 -0.1056
 3945WAT     H212047   1.327   5.386   3.456  0.4736  2.7579  1.3417
 3946WAT      O12048   4.837   1.050   2.039 -0.0326 -0.7228  0.0067
 3946WAT     H112049   4.800   1.020   1.956 -0.2725 -0.3755 -0.0120
 3946WAT     H212050   4.821   1.144   2.040 -1.0916 -0.8857  0.9697
 3947WAT      O12051   3.070   4.955   2.278 -0.8594 -0.0675  0.4682
 3947WAT     H112052   3.021   4.997   2.349 -0.2717 -0.2569  1.0001
 3947WAT     H212053   3.056   4.861   2.291 -0.9392 -0.0945  0.1951
 3948WAT      O12054   3.543   0.437   1.734  0.2047 -0.1205 -0.0263
 3948WAT     H112055   3.451   0.448   1.710 -0.4235  2.1808  2.8516
 3948WAT     H212056   3.584   0.521   1.710  0.2782  0.9249  3.3342
 3949WAT      O12057   2.118   2.337   1.004  0.1074  0.0980  0.0205
 3949WAT     H112058   2.105   2.247   1.034 -1.9641  0.6096  0.8112
 3949WAT     H212059   2.153   2.383   1.080 -2.9128  0.8629  1.0678
 3950WAT      O12060   2.409   0.069   2.360 -0.2117 -0.1926 -0.1775
 3950WAT     H112061   2.479   0.131   2.379 -0.6622  0.2865 -0.0666
 3950WAT     H212062   2.443   0.015   2.288 -0.1617  0.7666 -0.8946
 3951WAT      O12063   1.125   4.932   2.740  0.5048  0.3413 -0.1289
 3951WAT     H112064   1.178   4.871   2.689  0.1847 -0.1892  0.1523
 3951WAT     H212065   1.039   4.930   2.698  0.1661 -0.2934  0.5626
 3952WAT      O12066   3.218   2.582   2.414  0.1040  0.4245 -0.0721
 3952WAT     H112067   3.266   2.649   2.365  0.8157  1.6167  2.0641
 3952WAT     H212068   3.141   2.628   2.448  0.2040 -0.0276  0.7958
 3953WAT      O12069   0.085   0.746   1.163 -0.1779 -0.0426  0.2575
 3953WAT     H112070   0.066   0.706   1.248  0.5992  0.6834  0.7892
 3953WAT     H212071   0.004   0.735   1.113  0.3696 -3.4743 -0.1297
 3954WAT      O12072   2.772   0.977   2.918  0.1695 -0.2563 -0.8675
 3954WAT     H112073   2.797   1.022   2.838 -0.2352 -0.3945 -1.0738
 3954WAT     H212074   2.733   0.895   2.888  0.1103 -0.3537 -0.5251
 3955WAT      O12075   4.199   3.393   0.690  0.2159 -0.1082 -0.2930
 3955WAT     H112076   4.125   3.451   0.673  0.0629 -0.1691  0.1516
 3955WAT     H212077   4.275   3.440   0.657 -0.2431 -0.9455 -2.7581
 3956WAT      O12078   1.616   5.270   3.864 -0.2659  0.5762 -0.1601
 3956WAT     H112079   1.643   5.270   3.772 -0.9294 -0.6812 -0.3785
 3956WAT     H212080   1.679   5.328   3.907  1.2453 -0.3041 -1.0791
 3957WAT      O12081   1.589   4.593   3.528  0.0470  0.7108 -0.4784
 3957WAT     H112082   1.529   4.667   3.518  0.0630  1.0904  1.7050
 3957WAT     H212083   1.639   4.613   3.608  0.1354 -1.5946  0.1192
 3958WAT      O12084   4.831   0.578   2.296 -0.0078 -0.4766  0.3890
 3958WAT     H112085   4.852   0.499   2.346  1.3956 -0.2437  0.2033
 3958WAT     H212086   4.877   0.567   2.213  0.0953  0.4798  0.3117
 3959WAT      O12087   0.123   2.199   1.331  0.0528  0.5786  0.7772
 3959WAT     H112088   0.132   2.167   1.242  0.6094  0.0464  1.0124
 3959WAT     H212089   0.196   2.260   1.342  1.4611 -1.1303  1.5887
 3960WAT      O12090   1.787   0.482   3.264  0.1904  0.2644 -0.4520
 3960WAT     H112091   1.710   0.458   3.315  0.1068  0.2301 -0.5938
 3960WAT     H212092   1.769   0.571   3.234  0.6223  0.6248  0.3099
 3961WAT      O12093   1.694   0.522   2.297 -0.4769 -0.0226 -0.1102
 3961WAT     H112094   1.664   0.490   2.382 -1.7711  0.1204 -0.5028
 3961WAT     H212095   1.679   0.616   2.300  0.7011  0.1843 -0.0273
 3962WAT      O12096   4.234   1.353   2.686  0.8282  0.0335  0.2478
 3962WAT     H112097   4.287   1.274   2.695  0.0681 -0.3153  2.0932
 3962WAT     H212098   4.173   1.333   2.615 -0.1934 -1.5767  1.5164
 3963WAT      O12099   0.536   0.246   2.042 -0.6157  0.1180  0.1559
 3963WAT     H112100   0.585   0.324   2.068  0.8305 -0.5683 -0.4077
 3963WAT     H212101   0.538   0.190   2.119  0.2341 -0.2583 -0.1307
 3964WAT      O12102   3.958   1.699   1.320 -0.0415  0.6419 -0.0256
 3964WAT     H112103   4.002   1.676   1.402 -0.3804  1.0052  0.2695
 3964WAT     H212104   3.911   1.620   1.295  0.7122  0.2790 -0.3035
 3965WAT      O12105   0.782   1.338   3.865 -0.0076 -0.5986 -0.1549
 3965WAT     H112106   0.709   1.308   3.810 -0.3350 -0.6541  0.3026
 3965WAT     H212107   0.750   1.326   3.955  0.0347  0.6753  0.0399
 3966WAT      O12108   0.857   2.360   2.047 -0.7510  0.4698  0.0310
 3966WAT     H112109   0.950   2.362   2.024 -0.9699 -0.7245 -1.0811
 3966WAT     H212110   0.834   2.452   2.059  0.7313  0.7517  1.0528
 3967WAT      O12111   2.916   0.781   1.724  0.2592  0.3242  1.0609
 3967WAT     H112112   2.821   0.791   1.710  0.1351 -0.1485  1.5213
 3967WAT     H212113   2.955   0.854   1.676 -0.3871  0.9498  1.4639
 3968WAT      O12114   2.234   0.590   2.351 -0.5936  0.6923 -0.2603
 3968WAT     H112115   2.191   0.512   2.385  1.0122  0.5481  1.6370
 3968WAT     H212116   2.291   0.619   2.422  0.2560  2.5228 -1.5951
 3969WAT      O12117   2.506   2.978   1.135  0.3964 -0.1191 -0.4574
 3969WAT     H112118   2.520   2.924   1.212 -0.5914 -2.9236 -2.1108
 3969WAT     H212119   2.424   3.025   1.153 -0.8238 -2.1499 -0.4774
 3970WAT      O12120   2.327   2.584   0.420  0.1217  0.0342  0.4002
 3970WAT     H112121   2.389   2.543   0.359  1.5682  0.8512  1.2737
 3970WAT     H212122   2.339   2.537   0.502 -0.3704  0.2724  0.6142
 3971WAT      O12123   2.694   1.571   2.209 -0.3844 -0.1754 -0.1064
 3971WAT     H112124   2.784   1.543   2.192 -0.3903 -0.2299 -0.0494
 3971WAT     H212125   2.659   1.593   2.122 -0.3796 -0.3463 -0.1531
 3972WAT      O12126   1.505   0.399   1.915 -0.5983  0.0058 -0.0193
 3972WAT     H112127   1.438   0.359   1.970 -2.0636  2.6023  0.2404
 3972WAT     H212128   1.492   0.493   1.925  1.3594  0.6052 -2.1022
 3973WAT      O12129   3.112   1.303   0.717  0.1022 -0.0693  0.2460
 3973WAT     H112130   3.044   1.282   0.653 -0.1573  1.5333 -0.0500
 3973WAT     H212131   3.070   1.291   0.802  0.4752 -2.2986  0.1843
 3974WAT      O12132   1.528   0.765   1.053 -0.0351 -0.3210  0.3905
 3974WAT     H112133   1.493   0.690   1.099  0.6514  0.1532  1.7433
 3974WAT     H212134   1.622   0.764   1.073  0.0493  0.6579  0.1150
 3975WAT      O12135   4.419   5.236   3.791 -0.0330  0.1405  0.5244
 3975WAT     H112136   4.489   5.273   3.738  0.9112  2.2869  3.0791
 3975WAT     H212137   4.462   5.169   3.844 -0.4851 -0.4043  0.2074
 3976WAT      O12138   0.173   3.662   3.166  0.0436 -0.6415  0.0347
 3976WAT     H112139   0.185   3.749   3.129  1.2396  0.1639  2.1298
 3976WAT     H212140   0.260   3.624   3.168 -0.2594 -1.3467  0.3713
 3977WAT      O12141   2.545   3.800   0.292  0.2695  0.4357  0.0329
 3977WAT     H112142   2.628   3.759   0.269 -0.3059 -1.7584  1.5830
 3977WAT     H212143   2.563   3.846   0.374 -0.4236 -1.7604  1.5122
 3978WAT      O12144   1.598   2.888   1.405  0.0621  0.2200 -0.2982
 3978WAT     H112145   1.560   2.813   1.359 -0.0950  1.2354 -1.8933
 3978WAT     H212146   1.653   2.849   1.472 -2.4006 -1.3187  0.9945
 3979WAT      O12147   4.274   2.068   5.310 -0.6319  0.8006  1.2206
 3979WAT     H112148   4.226   2.141   5.272 -1.4825 -0.5410 -0.3813
 3979WAT     H212149   4.207   2.002   5.329  0.3067 -0.2456  0.9959
 3980WAT      O12150   3.725   2.543   2.399  0.1416  0.4553 -0.2923
 3980WAT     H112151   3.772   2.460   2.395 -0.9664 -0.1873 -0.5336
 3980WAT     H212152   3.639   2.520   2.435 -0.2110  1.4771 -0.4490
 3981WAT      O12153   1.359   1.238   0.531 -0.0417 -0.4262 -0.2289
 3981WAT     H112154   1.345   1.328   0.500 -0.6429 -0.0661  1.0173
 3981WAT     H212155   1.278   1.217   0.577  0.3731 -1.3625  0.0833
 3982WAT      O12156   2.693   0.724   1.179 -0.1377  0.4974  0.0551
 3982WAT     H112157   2.655   0.747   1.094  2.3882 -1.1140 -1.6452
 3982WAT     H212158   2.770   0.780   1.187  0.4790 -0.4152  0.5933
 3983WAT      O12159   2.792   2.815   4.553 -0.0749 -0.3151 -0.0653
 3983WAT     H112160   2.820   2.858   4.634  0.3698  0.0883 -0.4211
 3983WAT     H212161   2.728   2.875   4.515  0.0931 -0.2612 -0.2621
 3984WAT      O12162   0.529   1.893   3.383 -0.0133  0.7339  0.4518
 3984WAT     H112163   0.623   1.894   3.402 -0.1360 -0.2302  1.1740
 3984WAT     H212164   0.487   1.884   3.468 -0.7417  0.7558  0.1006
 3985WAT      O12165   0.412   1.681   4.139  0.1786  0.2187 -0.3946
 3985WAT     H112166   0.381   1.625   4.210  0.2215  0.0773 -0.4870
 3985WAT     H212167   0.464   1.623   4.083 -0.5398  0.1345 -0.9907
 3986WAT      O12168   2.990   3.476   4.026 -0.1555  0.3318  0.0490
 3986WAT     H112169   2.969   3.458   4.118  0.6323  1.3140  0.4404
 3986WAT     H212170   2.953   3.402   3.978 -1.2963  0.1963  1.0689
 3987WAT      O12171   3.352   1.697   0.333 -0.0220  0.3607 -0.2844
 3987WAT     H112172   3.443   1.669   0.324  0.0401 -0.0106  1.2940
 3987WAT     H212173   3.357   1.793   0.331  0.4500  0.3495  0.1483
 3988WAT      O12174   4.793   4.454   2.142 -0.5854  0.3528 -0.5123
 3988WAT     H112175   4.808   4.533   2.090 -1.8824  1.3220  0.4861
 3988WAT     H212176   4.856   4.390   2.109 -0.0347  1.5545 -1.8864
 3989WAT      O12177  -0.030   4.789   1.440  0.1826  0.3271 -0.4221
 3989WAT     H112178  -0.018   4.884   1.430 -0.1540  0.5041  0.7209
 3989WAT     H212179   0.053   4.752   1.412 -0.2201  0.8241 -2.4667
 3990WAT      O12180   3.514   2.180   4.458 -0.5626 -0.5883  0.0374
 3990WAT     H112181   3.488   2.111   4.397 -1.2675 -0.5826  0.3209
 3990WAT     H212182   3.526   2.135   4.542  2.2082 -0.9305 -0.4293
 3991WAT      O12183   0.687   0.250   3.451  0.0795 -0.2551 -0.6702
 3991WAT     H112184   0.713   0.207   3.369 -0.3354 -0.7889 -0.5277
 3991WAT     H212185   0.746   0.325   3.458 -0.6753  0.4982 -2.0676
 3992WAT      O12186   4.694   1.225   2.540  0.3408 -0.2905 -0.0439
 3992WAT     H112187   4.779   1.180   2.534 -0.0179 -1.4385  2.3045
 3992WAT     H212188   4.667   1.239   2.449  2.8087 -0.3046 -0.8541
 3993WAT      O12189   0.185   3.718   2.087  0.1630 -0.1849  0.5241
 3993WAT     H112190   0.274   3.720   2.053  0.4585  0.0928  1.2968
 3993WAT     H212191   0.190   3.660   2.163 -0.5640 -1.0934 -0.0902
 3994WAT      O12192   4.892   5.459   3.510 -0.2668  0.1794 -0.0118
 3994WAT     H112193   4.882   5.542   3.464  0.2984  1.1339  1.4953
 3994WAT     H212194   4.802   5.433   3.531 -0.4285  0.6413 -0.1243
 3995WAT      O12195   3.316   1.424   0.948  0.7777 -0.8609 -0.2882
 3995WAT     H112196   3.291   1.515   0.963  0.2666 -0.9941 -0.3117
 3995WAT     H212197   3.306   1.412   0.854 -1.3608 -1.5630 -0.0282
 3996WAT      O12198   2.113   0.601   4.132  0.3157  0.3972 -0.2138
 3996WAT     H112199   2.172   0.560   4.069 -0.1509  1.9783 -1.7725
 3996WAT     H212200   2.027   0.563   4.113  0.4919 -0.6177  0.8856
 3997WAT      O12201   1.635   0.406   2.528  0.3488  0.0839  0.0453
 3997WAT     H112202   1.545   0.388   2.554  1.2750 -0.5534  3.3291
 3997WAT     H212203   1.673   0.320   2.513  0.6779  0.2934 -0.3413
 3998WAT      O12204   2.393   2.522   2.251 -0.1162 -0.0031 -0.2524
 3998WAT     H112205   2.427   2.456   2.190  0.6426  1.4741 -1.4963
 3998WAT     H212206   2.299   2.520   2.237  0.0181  0.1146 -1.2995
 3999WAT      O12207   4.252   2.755   2.062  0.2331 -0.3662 -0.5227
 3999WAT     H112208   4.239   2.770   2.156  0.2118 -1.3831 -0.3453
 3999WAT     H212209   4.170   2.783   2.021 -0.0915 -0.7239 -0.1304
 4000WAT      O12210   2.703   2.119   1.509 -0.3972  0.1850  0.7075
 4000WAT     H112211   2.622   2.070   1.493 -1.2382  1.5805  0.5561
 4000WAT     H212212   2.766   2.052   1.535 -1.0605 -1.1871 -1.0177
 4001WAT      O12213   4.671   1.044   1.245  0.3653 -0.2551  0.8507
 4001WAT     H112214   4.692   0.962   1.290  0.7122 -0.2462  0.7111
 4001WAT     H212215   4.712   1.112   1.299  1.7734 -0.3312 -0.0681
 4002WAT      O12216   0.490   2.718   5.065  0.2306  0.1321 -0.1656
 4002WAT     H112217   0.508   2.729   4.972 -0.3428  1.3793 -0.1458
 4002WAT     H212218   0.569   2.678   5.101  1.2531  1.5021 -0.8314
 4003WAT      O12219   0.721   1.502   5.136  0.0038  0.3115  0.1428
 4003WAT     H112220   0.804   1.469   5.100  0.2256  0.7910  0.1933
 4003WAT     H212221   0.748   1.557   5.210 -0.2323  1.7302 -0.7821
 4004WAT      O12222   1.743   1.442   0.534 -0.7203  0.7057  0.1593
 4004WAT     H112223   1.819   1.412   0.485 -0.3495  0.0113  1.1411
 4004WAT     H212224   1.694   1.362   0.554 -0.9305  0.9911  0.8188
 4005WAT      O12225   3.191   4.345   2.540  0.0973 -0.1992  0.0278
 4005WAT     H112226   3.211   4.389   2.458 -0.4828  0.4178  0.2139
 4005WAT     H212227   3.276   4.338   2.585  0.1617  0.9443  0.0999
   4.97495   5.65703   5.83016
