4QHU_QSPVLIYDDT_UNCAPPED
  103
   43ACE    CH3    1   1.797   2.302   2.744
   43ACE   HH31    2   1.776   2.206   2.759
   43ACE   HH32    3   1.836   2.341   2.827
   43ACE   HH33    4   1.713   2.351   2.721
   43ACE      C    5   1.896   2.315   2.631
   43ACE      O    6   1.937   2.426   2.594
   44VAL      N    7   1.938   2.208   2.571
   44VAL      H    8   1.905   2.119   2.600
   44VAL     CA    9   2.034   2.220   2.461
   44VAL     HA   10   2.022   2.312   2.425
   44VAL     CB   11   2.180   2.193   2.515
   44VAL     HB   12   2.188   2.264   2.585
   44VAL    CG1   13   2.206   2.055   2.580
   44VAL   HG11   14   2.301   2.049   2.610
   44VAL   HG12   15   2.145   2.043   2.659
   44VAL   HG13   16   2.188   1.982   2.513
   44VAL    CG2   17   2.290   2.208   2.407
   44VAL   HG21   18   2.379   2.191   2.447
   44VAL   HG22   19   2.273   2.143   2.333
   44VAL   HG23   20   2.288   2.302   2.370
   44VAL      C   21   1.999   2.124   2.350
   44VAL      O   22   1.982   2.004   2.374
   45LEU      N   23   1.991   2.175   2.229
   45LEU      H   24   2.002   2.274   2.218
   45LEU     CA   25   1.967   2.093   2.111
   45LEU     HA   26   1.887   2.037   2.133
   45LEU     CB   27   1.940   2.183   1.987
   45LEU    HB1   28   1.934   2.122   1.907
   45LEU    HB2   29   2.018   2.244   1.977
   45LEU     CG   30   1.812   2.271   1.987
   45LEU     HG   31   1.816   2.329   2.069
   45LEU    CD1   32   1.808   2.359   1.861
   45LEU   HD11   33   1.726   2.416   1.863
   45LEU   HD12   34   1.889   2.418   1.860
   45LEU   HD13   35   1.808   2.301   1.780
   45LEU    CD2   36   1.683   2.189   1.997
   45LEU   HD21   37   1.604   2.250   1.996
   45LEU   HD22   38   1.677   2.127   1.918
   45LEU   HD23   39   1.683   2.135   2.081
   45LEU      C   40   2.083   1.999   2.086
   45LEU      O   41   2.197   2.044   2.069
   46VAL      N   42   2.057   1.868   2.081
   46VAL      H   43   1.964   1.836   2.095
   46VAL     CA   44   2.164   1.771   2.056
   46VAL     HA   45   2.245   1.828   2.052
   46VAL     CB   46   2.175   1.667   2.171
   46VAL     HB   47   2.245   1.599   2.147
   46VAL    CG1   48   2.219   1.735   2.301
   46VAL   HG11   49   2.226   1.667   2.373
   46VAL   HG12   50   2.308   1.778   2.287
   46VAL   HG13   51   2.152   1.805   2.326
   46VAL    CG2   52   2.044   1.591   2.191
   46VAL   HG21   53   2.054   1.526   2.265
   46VAL   HG22   54   1.971   1.656   2.214
   46VAL   HG23   55   2.020   1.543   2.107
   46VAL      C   56   2.146   1.697   1.923
   46VAL      O   57   2.243   1.652   1.863
   47ILE      N   58   2.021   1.684   1.879
   47ILE      H   59   1.946   1.717   1.937
   47ILE     CA   60   1.988   1.625   1.749
   47ILE     HA   61   2.072   1.635   1.695
   47ILE     CB   62   1.950   1.476   1.760
   47ILE     HB   63   1.876   1.467   1.827
   47ILE    CG2   64   1.899   1.423   1.626
   47ILE   HG21   65   1.875   1.326   1.636
   47ILE   HG22   66   1.819   1.475   1.598
   47ILE   HG23   67   1.971   1.433   1.557
   47ILE    CG1   68   2.068   1.391   1.808
   47ILE   HG11   69   2.033   1.302   1.839
   47ILE   HG12   70   2.112   1.438   1.885
   47ILE     CD   71   2.174   1.365   1.703
   47ILE    HD1   72   2.247   1.310   1.742
   47ILE    HD2   73   2.133   1.317   1.625
   47ILE    HD3   74   2.211   1.452   1.671
   47ILE      C   75   1.872   1.702   1.686
   47ILE      O   76   1.773   1.730   1.753
   48TYR      N   77   1.884   1.736   1.558
   48TYR      H   78   1.970   1.720   1.510
   48TYR     CA   79   1.772   1.798   1.488
   48TYR     HA   80   1.693   1.777   1.545
   48TYR     CB   81   1.795   1.951   1.470
   48TYR    HB1   82   1.879   1.963   1.418
   48TYR    HB2   83   1.805   1.991   1.560
   48TYR     CG   84   1.684   2.028   1.397
   48TYR    CD1   85   1.563   2.058   1.461
   48TYR    HD1   86   1.548   2.027   1.555
   48TYR    CE1   87   1.465   2.130   1.395
   48TYR    HE1   88   1.379   2.151   1.441
   48TYR     CZ   89   1.486   2.173   1.264
   48TYR     OH   90   1.389   2.243   1.199
   48TYR     HH   91   1.420   2.266   1.107
   48TYR    CE2   92   1.606   2.144   1.199
   48TYR    HE2   93   1.621   2.174   1.105
   48TYR    CD2   94   1.705   2.072   1.266
   48TYR    HD2   95   1.791   2.051   1.219
   48TYR      C   96   1.754   1.737   1.351
   48TYR      O   97   1.849   1.716   1.276
   49NME      N   98   1.635   1.705   1.312
   49NME      H   99   1.557   1.721   1.372
   49NME    CH3  100   1.615   1.646   1.180
   49NME   HH31  101   1.518   1.628   1.166
   49NME   HH32  102   1.648   1.709   1.110
   49NME   HH33  103   1.667   1.560   1.174
   3.83925   3.83925   3.83925
