4QHU_QSPVLIYDDT_UNCAPPED in water
 5107
   43ACE    CH3    1   1.797   2.302   2.744
   43ACE   HH31    2   1.776   2.206   2.759
   43ACE   HH32    3   1.836   2.341   2.827
   43ACE   HH33    4   1.713   2.351   2.721
   43ACE      C    5   1.896   2.315   2.631
   43ACE      O    6   1.937   2.426   2.594
   44VAL      N    7   1.938   2.208   2.571
   44VAL      H    8   1.905   2.119   2.600
   44VAL     CA    9   2.034   2.220   2.461
   44VAL     HA   10   2.022   2.312   2.425
   44VAL     CB   11   2.180   2.193   2.515
   44VAL     HB   12   2.188   2.264   2.585
   44VAL    CG1   13   2.206   2.055   2.580
   44VAL   HG11   14   2.301   2.049   2.610
   44VAL   HG12   15   2.145   2.043   2.659
   44VAL   HG13   16   2.188   1.982   2.513
   44VAL    CG2   17   2.290   2.208   2.407
   44VAL   HG21   18   2.379   2.191   2.447
   44VAL   HG22   19   2.273   2.143   2.333
   44VAL   HG23   20   2.288   2.302   2.370
   44VAL      C   21   1.999   2.124   2.350
   44VAL      O   22   1.982   2.004   2.374
   45LEU      N   23   1.991   2.175   2.229
   45LEU      H   24   2.002   2.274   2.218
   45LEU     CA   25   1.967   2.093   2.111
   45LEU     HA   26   1.887   2.037   2.133
   45LEU     CB   27   1.940   2.183   1.987
   45LEU    HB1   28   1.934   2.122   1.907
   45LEU    HB2   29   2.018   2.244   1.977
   45LEU     CG   30   1.812   2.271   1.987
   45LEU     HG   31   1.816   2.329   2.069
   45LEU    CD1   32   1.808   2.359   1.861
   45LEU   HD11   33   1.726   2.416   1.863
   45LEU   HD12   34   1.889   2.418   1.860
   45LEU   HD13   35   1.808   2.301   1.780
   45LEU    CD2   36   1.683   2.189   1.997
   45LEU   HD21   37   1.604   2.250   1.996
   45LEU   HD22   38   1.677   2.127   1.918
   45LEU   HD23   39   1.683   2.135   2.081
   45LEU      C   40   2.083   1.999   2.086
   45LEU      O   41   2.197   2.044   2.069
   46VAL      N   42   2.057   1.868   2.081
   46VAL      H   43   1.964   1.836   2.095
   46VAL     CA   44   2.164   1.771   2.056
   46VAL     HA   45   2.245   1.828   2.052
   46VAL     CB   46   2.175   1.667   2.171
   46VAL     HB   47   2.245   1.599   2.147
   46VAL    CG1   48   2.219   1.735   2.301
   46VAL   HG11   49   2.226   1.667   2.373
   46VAL   HG12   50   2.308   1.778   2.287
   46VAL   HG13   51   2.152   1.805   2.326
   46VAL    CG2   52   2.044   1.591   2.191
   46VAL   HG21   53   2.054   1.526   2.265
   46VAL   HG22   54   1.971   1.656   2.214
   46VAL   HG23   55   2.020   1.543   2.107
   46VAL      C   56   2.146   1.697   1.923
   46VAL      O   57   2.243   1.652   1.863
   47ILE      N   58   2.021   1.684   1.879
   47ILE      H   59   1.946   1.717   1.937
   47ILE     CA   60   1.988   1.625   1.749
   47ILE     HA   61   2.072   1.635   1.695
   47ILE     CB   62   1.950   1.476   1.760
   47ILE     HB   63   1.876   1.467   1.827
   47ILE    CG2   64   1.899   1.423   1.626
   47ILE   HG21   65   1.875   1.326   1.636
   47ILE   HG22   66   1.819   1.475   1.598
   47ILE   HG23   67   1.971   1.433   1.557
   47ILE    CG1   68   2.068   1.391   1.808
   47ILE   HG11   69   2.033   1.302   1.839
   47ILE   HG12   70   2.112   1.438   1.885
   47ILE     CD   71   2.174   1.365   1.703
   47ILE    HD1   72   2.247   1.310   1.742
   47ILE    HD2   73   2.133   1.317   1.625
   47ILE    HD3   74   2.211   1.452   1.671
   47ILE      C   75   1.872   1.702   1.686
   47ILE      O   76   1.773   1.730   1.753
   48TYR      N   77   1.884   1.736   1.558
   48TYR      H   78   1.970   1.720   1.510
   48TYR     CA   79   1.772   1.798   1.488
   48TYR     HA   80   1.693   1.777   1.545
   48TYR     CB   81   1.795   1.951   1.470
   48TYR    HB1   82   1.879   1.963   1.418
   48TYR    HB2   83   1.805   1.991   1.560
   48TYR     CG   84   1.684   2.028   1.397
   48TYR    CD1   85   1.563   2.058   1.461
   48TYR    HD1   86   1.548   2.027   1.555
   48TYR    CE1   87   1.465   2.130   1.395
   48TYR    HE1   88   1.379   2.151   1.441
   48TYR     CZ   89   1.486   2.173   1.264
   48TYR     OH   90   1.389   2.243   1.199
   48TYR     HH   91   1.420   2.266   1.107
   48TYR    CE2   92   1.606   2.144   1.199
   48TYR    HE2   93   1.621   2.174   1.105
   48TYR    CD2   94   1.705   2.072   1.266
   48TYR    HD2   95   1.791   2.051   1.219
   48TYR      C   96   1.754   1.737   1.351
   48TYR      O   97   1.849   1.716   1.276
   49NME      N   98   1.635   1.705   1.312
   49NME      H   99   1.557   1.721   1.372
   49NME    CH3  100   1.615   1.646   1.180
   49NME   HH31  101   1.518   1.628   1.166
   49NME   HH32  102   1.648   1.709   1.110
   49NME   HH33  103   1.667   1.560   1.174
   50SOL     OW  104   0.230   0.628   0.113
   50SOL    HW1  105   0.137   0.626   0.150
   50SOL    HW2  106   0.231   0.589   0.021
   51SOL     OW  107   0.225   0.275   0.996
   51SOL    HW1  108   0.260   0.258   1.088
   51SOL    HW2  109   0.137   0.230   0.984
   52SOL     OW  110   0.019   0.368   0.647
   52SOL    HW1  111  -0.063   0.411   0.686
   52SOL    HW2  112  -0.009   0.295   0.584
   53SOL     OW  113   0.569   1.275   1.165
   53SOL    HW1  114   0.476   1.268   1.128
   53SOL    HW2  115   0.580   1.364   1.209
   54SOL     OW  116   1.555   1.511   0.703
   54SOL    HW1  117   1.498   1.495   0.784
   54SOL    HW2  118   1.496   1.521   0.623
   55SOL     OW  119   1.135   0.703   0.717
   55SOL    HW1  120   1.192   0.781   0.692
   55SOL    HW2  121   1.075   0.729   0.793
   56SOL     OW  122   1.755   0.607   0.231
   56SOL    HW1  123   1.743   0.594   0.132
   56SOL    HW2  124   1.725   0.526   0.280
   57SOL     OW  125   0.768   1.144   1.023
   57SOL    HW1  126   0.690   1.161   1.083
   57SOL    HW2  127   0.802   1.231   0.987
   58SOL     OW  128   0.850   0.798   1.823
   58SOL    HW1  129   0.846   0.874   1.888
   58SOL    HW2  130   0.872   0.834   1.732
   59SOL     OW  131   0.685   1.012   0.665
   59SOL    HW1  132   0.754   0.996   0.735
   59SOL    HW2  133   0.612   1.069   0.703
   60SOL     OW  134   0.686   1.161   1.803
   60SOL    HW1  135   0.746   1.240   1.817
   60SOL    HW2  136   0.600   1.192   1.762
   61SOL     OW  137   0.335   1.435   1.061
   61SOL    HW1  138   0.257   1.404   1.008
   61SOL    HW2  139   0.393   1.493   1.004
   62SOL     OW  140   1.460   1.505   1.339
   62SOL    HW1  141   1.484   1.599   1.365
   62SOL    HW2  142   1.444   1.451   1.421
   63SOL     OW  143   0.438   0.392   1.499
   63SOL    HW1  144   0.520   0.336   1.508
   63SOL    HW2  145   0.357   0.334   1.503
   64SOL     OW  146   1.603   0.447   0.737
   64SOL    HW1  147   1.529   0.493   0.687
   64SOL    HW2  148   1.654   0.515   0.790
   65SOL     OW  149   0.231   1.713   0.483
   65SOL    HW1  150   0.265   1.790   0.537
   65SOL    HW2  151   0.275   1.713   0.393
   66SOL     OW  152   1.127   1.341   1.690
   66SOL    HW1  153   1.174   1.341   1.778
   66SOL    HW2  154   1.079   1.254   1.679
   67SOL     OW  155   0.230   1.434   0.538
   67SOL    HW1  156   0.204   1.530   0.538
   67SOL    HW2  157   0.159   1.380   0.583
   68SOL     OW  158   0.240   1.091   0.886
   68SOL    HW1  159   0.254   1.007   0.938
   68SOL    HW2  160   0.185   1.155   0.941
   69SOL     OW  161   0.620   1.786   1.439
   69SOL    HW1  162   0.528   1.769   1.474
   69SOL    HW2  163   0.648   1.878   1.465
   70SOL     OW  164   0.606   0.964   0.123
   70SOL    HW1  165   0.613   1.048   0.069
   70SOL    HW2  166   0.652   0.977   0.211
   71SOL     OW  167   1.594   0.114   1.480
   71SOL    HW1  168   1.576   0.181   1.408
   71SOL    HW2  169   1.591   0.160   1.569
   72SOL     OW  170   0.122   0.643   0.563
   72SOL    HW1  171   0.077   0.555   0.580
   72SOL    HW2  172   0.121   0.697   0.647
   73SOL     OW  173   1.842   1.767   0.359
   73SOL    HW1  174   1.896   1.738   0.439
   73SOL    HW2  175   1.872   1.857   0.330
   74SOL     OW  176   0.027   1.596   0.117
   74SOL    HW1  177   0.008   1.500   0.138
   74SOL    HW2  178  -0.006   1.654   0.192
   75SOL     OW  179   1.689   0.922   0.612
   75SOL    HW1  180   1.784   0.893   0.620
   75SOL    HW2  181   1.681   0.987   0.537
   76SOL     OW  182   1.641   1.108   0.432
   76SOL    HW1  183   1.727   1.110   0.380
   76SOL    HW2  184   1.655   1.155   0.520
   77SOL     OW  185   0.113   0.737   1.597
   77SOL    HW1  186   0.201   0.724   1.642
   77SOL    HW2  187   0.100   0.834   1.575
   78SOL     OW  188   0.613   1.365   0.726
   78SOL    HW1  189   0.564   1.278   0.735
   78SOL    HW2  190   0.590   1.408   0.639
   79SOL     OW  191   1.293   1.228   1.423
   79SOL    HW1  192   1.330   1.155   1.365
   79SOL    HW2  193   1.345   1.233   1.508
   80SOL     OW  194   0.809   0.004   0.502
   80SOL    HW1  195   0.849   0.095   0.493
   80SOL    HW2  196   0.709   0.012   0.508
   81SOL     OW  197   0.197   0.976   1.264
   81SOL    HW1  198   0.286   0.931   1.250
   81SOL    HW2  199   0.124   0.911   1.245
   82SOL     OW  200   1.525   0.999   0.190
   82SOL    HW1  201   1.462   0.923   0.203
   82SOL    HW2  202   1.573   1.017   0.276
   83SOL     OW  203   1.187   1.792   1.616
   83SOL    HW1  204   1.211   1.852   1.540
   83SOL    HW2  205   1.194   1.697   1.586
   84SOL     OW  206   0.317   0.251   1.801
   84SOL    HW1  207   0.388   0.322   1.807
   84SOL    HW2  208   0.229   0.290   1.829
   85SOL     OW  209   1.466   1.417   0.953
   85SOL    HW1  210   1.407   1.423   1.033
   85SOL    HW2  211   1.451   1.329   0.907
   86SOL     OW  212   1.667   1.714   0.572
   86SOL    HW1  213   1.626   1.691   0.484
   86SOL    HW2  214   1.649   1.640   0.637
   87SOL     OW  215   0.598   0.729   0.270
   87SOL    HW1  216   0.622   0.798   0.202
   87SOL    HW2  217   0.520   0.762   0.324
   88SOL     OW  218   1.281   0.345   0.944
   88SOL    HW1  219   1.195   0.295   0.931
   88SOL    HW2  220   1.343   0.291   1.000
   89SOL     OW  221   1.576   1.662   0.307
   89SOL    HW1  222   1.665   1.708   0.310
   89SOL    HW2  223   1.555   1.638   0.212
   90SOL     OW  224   0.807   0.605   1.465
   90SOL    HW1  225   0.760   0.602   1.554
   90SOL    HW2  226   0.756   0.550   1.399
   91SOL     OW  227   1.394   0.469   1.674
   91SOL    HW1  228   1.374   0.512   1.762
   91SOL    HW2  229   1.472   0.407   1.683
   92SOL     OW  230   0.973   0.890   1.572
   92SOL    HW1  231   1.019   0.806   1.543
   92SOL    HW2  232   0.917   0.924   1.497
   93SOL     OW  233   0.991   0.410   1.242
   93SOL    HW1  234   0.914   0.444   1.296
   93SOL    HW2  235   0.957   0.359   1.163
   94SOL     OW  236   1.041   0.701   0.429
   94SOL    HW1  237   1.067   0.697   0.525
   94SOL    HW2  238   0.956   0.650   0.415
   95SOL     OW  239   0.076   0.811   0.789
   95SOL    HW1  240   0.175   0.799   0.798
   95SOL    HW2  241   0.052   0.906   0.810
   96SOL     OW  242   0.130   1.821   1.571
   96SOL    HW1  243   0.120   1.806   1.670
   96SOL    HW2  244   0.044   1.857   1.535
   97SOL     OW  245   0.865   0.348   0.195
   97SOL    HW1  246   0.924   0.411   0.146
   97SOL    HW2  247   0.884   0.254   0.166
   98SOL     OW  248   1.719   0.585   1.831
   98SOL    HW1  249   1.693   0.674   1.795
   98SOL    HW2  250   1.717   0.517   1.758
   99SOL     OW  251   1.362   1.144   0.545
   99SOL    HW1  252   1.445   1.115   0.497
   99SOL    HW2  253   1.313   1.211   0.489
  100SOL     OW  254   0.550   0.196   0.885
  100SOL    HW1  255   0.545   0.191   0.985
  100SOL    HW2  256   0.552   0.292   0.856
  101SOL     OW  257   1.008   1.456   0.477
  101SOL    HW1  258   0.962   1.528   0.425
  101SOL    HW2  259   1.004   1.476   0.575
  102SOL     OW  260   0.351   1.801   0.853
  102SOL    HW1  261   0.401   1.715   0.859
  102SOL    HW2  262   0.416   1.878   0.850
  103SOL     OW  263   1.795   1.066   0.873
  103SOL    HW1  264   1.733   1.051   0.797
  103SOL    HW2  265   1.743   1.077   0.958
  104SOL     OW  266   1.227   1.550   1.506
  104SOL    HW1  267   1.233   1.473   1.570
  104SOL    HW2  268   1.175   1.524   1.426
  105SOL     OW  269   0.321   0.943   0.242
  105SOL    HW1  270   0.403   0.982   0.200
  105SOL    HW2  271   0.294   0.861   0.193
  106SOL     OW  272   1.458   0.735   0.728
  106SOL    HW1  273   1.453   0.670   0.803
  106SOL    HW2  274   1.538   0.794   0.741
  107SOL     OW  275   0.461   1.266   1.727
  107SOL    HW1  276   0.411   1.267   1.641
  107SOL    HW2  277   0.398   1.248   1.803
  108SOL     OW  278   1.111   1.776   0.237
  108SOL    HW1  279   1.051   1.714   0.287
  108SOL    HW2  280   1.142   1.732   0.152
  109SOL     OW  281   0.202   0.285   1.498
  109SOL    HW1  282   0.122   0.345   1.485
  109SOL    HW2  283   0.192   0.236   1.584
  110SOL     OW  284   1.632   1.377   0.081
  110SOL    HW1  285   1.600   1.471   0.071
  110SOL    HW2  286   1.556   1.314   0.069
  111SOL     OW  287   0.464   1.743   0.323
  111SOL    HW1  288   0.497   1.782   0.409
  111SOL    HW2  289   0.540   1.736   0.258
  112SOL     OW  290   1.400   0.107   0.426
  112SOL    HW1  291   1.376   0.070   0.336
  112SOL    HW2  292   1.499   0.123   0.430
  113SOL     OW  293   0.249   1.785   1.241
  113SOL    HW1  294   0.306   1.720   1.291
  113SOL    HW2  295   0.233   1.752   1.148
  114SOL     OW  296   0.940   1.698   0.904
  114SOL    HW1  297   1.020   1.641   0.925
  114SOL    HW2  298   0.891   1.658   0.827
  115SOL     OW  299   0.382   0.700   0.480
  115SOL    HW1  300   0.427   0.610   0.477
  115SOL    HW2  301   0.288   0.689   0.513
  116SOL     OW  302   1.547   0.222   1.729
  116SOL    HW1  303   1.542   0.259   1.821
  116SOL    HW2  304   1.475   0.153   1.717
  117SOL     OW  305   0.614   0.122   0.117
  117SOL    HW1  306   0.712   0.100   0.124
  117SOL    HW2  307   0.583   0.105   0.024
  118SOL     OW  308   0.781   0.264   1.749
  118SOL    HW1  309   0.848   0.203   1.792
  118SOL    HW2  310   0.708   0.283   1.814
  119SOL     OW  311   0.888   1.514   1.195
  119SOL    HW1  312   0.865   1.489   1.101
  119SOL    HW2  313   0.949   1.445   1.234
  120SOL     OW  314   1.351   0.590   1.433
  120SOL    HW1  315   1.379   0.547   1.518
  120SOL    HW2  316   1.376   0.686   1.434
  121SOL     OW  317   0.803   1.402   0.924
  121SOL    HW1  318   0.893   1.416   0.882
  121SOL    HW2  319   0.732   1.404   0.853
  122SOL     OW  320   0.922   0.503   0.899
  122SOL    HW1  321   0.897   0.494   0.803
  122SOL    HW2  322   0.970   0.421   0.930
  123SOL     OW  323   0.539   0.064   0.512
  123SOL    HW1  324   0.458   0.065   0.570
  123SOL    HW2  325   0.542   0.147   0.457
  124SOL     OW  326   1.434   1.188   0.041
  124SOL    HW1  327   1.466   1.112   0.098
  124SOL    HW2  328   1.342   1.215   0.071
  125SOL     OW  329   0.297   0.035   0.171
  125SOL    HW1  330   0.346   0.119   0.150
  125SOL    HW2  331   0.359  -0.030   0.216
  126SOL     OW  332   0.935   0.236   0.480
  126SOL    HW1  333   0.887   0.277   0.402
  126SOL    HW2  334   1.034   0.234   0.461
  127SOL     OW  335   1.076   0.683   1.464
  127SOL    HW1  336   0.996   0.622   1.467
  127SOL    HW2  337   1.157   0.630   1.440
  128SOL     OW  338   1.227   1.570   0.793
  128SOL    HW1  339   1.248   1.644   0.728
  128SOL    HW2  340   1.295   1.570   0.866
  129SOL     OW  341   0.459   1.152   0.741
  129SOL    HW1  342   0.388   1.125   0.806
  129SOL    HW2  343   0.433   1.124   0.648
  130SOL     OW  344   1.271   1.797   0.591
  130SOL    HW1  345   1.315   1.861   0.527
  130SOL    HW2  346   1.221   1.849   0.661
  131SOL     OW  347   1.032   0.549   0.016
  131SOL    HW1  348   0.991   0.631  -0.023
  131SOL    HW2  349   1.096   0.575   0.089
  132SOL     OW  350   0.078   0.556   1.386
  132SOL    HW1  351   0.170   0.555   1.345
  132SOL    HW2  352   0.072   0.630   1.453
  133SOL     OW  353   0.561   0.222   1.147
  133SOL    HW1  354   0.599   0.138   1.184
  133SOL    HW2  355   0.473   0.241   1.191
  134SOL     OW  356   0.866   0.454   0.642
  134SOL    HW1  357   0.834   0.526   0.580
  134SOL    HW2  358   0.890   0.373   0.589
  135SOL     OW  359   1.017   0.039   0.753
  135SOL    HW1  360   0.945   0.044   0.684
  135SOL    HW2  361   0.993  -0.030   0.822
  136SOL     OW  362   1.429   1.173   0.867
  136SOL    HW1  363   1.374   1.089   0.860
  136SOL    HW2  364   1.455   1.202   0.775
  137SOL     OW  365   1.466   0.590   0.992
  137SOL    HW1  366   1.436   0.495   0.999
  137SOL    HW2  367   1.539   0.606   1.058
  138SOL     OW  368   1.857   0.833   0.377
  138SOL    HW1  369   1.899   0.769   0.441
  138SOL    HW2  370   1.819   0.782   0.299
  139SOL     OW  371   0.488   1.385   0.174
  139SOL    HW1  372   0.401   1.370   0.221
  139SOL    HW2  373   0.471   1.411   0.079
  140SOL     OW  374   1.664   1.280   0.657
  140SOL    HW1  375   1.763   1.288   0.671
  140SOL    HW2  376   1.619   1.364   0.688
  141SOL     OW  377   1.390   0.575   0.078
  141SOL    HW1  378   1.336   0.554   0.159
  141SOL    HW2  379   1.481   0.534   0.087
  142SOL     OW  380   0.527   0.256   0.328
  142SOL    HW1  381   0.554   0.197   0.253
  142SOL    HW2  382   0.527   0.351   0.297
  143SOL     OW  383   1.064   1.347   1.340
  143SOL    HW1  384   0.984   1.324   1.395
  143SOL    HW2  385   1.147   1.321   1.389
  144SOL     OW  386   1.111   1.195   1.100
  144SOL    HW1  387   1.071   1.239   1.181
  144SOL    HW2  388   1.070   1.232   1.017
  145SOL     OW  389   1.638   1.099   1.079
  145SOL    HW1  390   1.643   1.180   1.138
  145SOL    HW2  391   1.552   1.101   1.028
  146SOL     OW  392   0.915   0.089   1.402
  146SOL    HW1  393   0.940   0.069   1.307
  146SOL    HW2  394   0.987   0.145   1.444
  147SOL     OW  395   0.980   1.116   1.719
  147SOL    HW1  396   0.881   1.122   1.729
  147SOL    HW2  397   1.003   1.036   1.663
  148SOL     OW  398   0.705   1.050   0.368
  148SOL    HW1  399   0.691   1.057   0.467
  148SOL    HW2  400   0.789   0.999   0.350
  149SOL     OW  401   0.410   0.813   1.251
  149SOL    HW1  402   0.496   0.825   1.301
  149SOL    HW2  403   0.368   0.726   1.278
  150SOL     OW  404   1.274   0.386   1.262
  150SOL    HW1  405   1.295   0.460   1.326
  150SOL    HW2  406   1.185   0.403   1.219
  151SOL     OW  407   0.064   1.564   1.331
  151SOL    HW1  408   0.018   1.646   1.297
  151SOL    HW2  409   0.162   1.583   1.340
  152SOL     OW  410   0.367   1.100   0.501
  152SOL    HW1  411   0.360   1.183   0.445
  152SOL    HW2  412   0.371   1.020   0.441
  153SOL     OW  413   0.566   0.537   0.865
  153SOL    HW1  414   0.578   0.603   0.791
  153SOL    HW2  415   0.612   0.571   0.948
  154SOL     OW  416   1.252   1.348   0.388
  154SOL    HW1  417   1.302   1.425   0.428
  154SOL    HW2  418   1.157   1.350   0.420
  155SOL     OW  419   1.272   1.445   1.142
  155SOL    HW1  420   1.319   1.458   1.229
  155SOL    HW2  421   1.206   1.371   1.151
  156SOL     OW  422   1.582   0.639   0.472
  156SOL    HW1  423   1.551   0.700   0.545
  156SOL    HW2  424   1.632   0.691   0.403
  157SOL     OW  425   0.354   1.510   1.329
  157SOL    HW1  426   0.333   1.466   1.242
  157SOL    HW2  427   0.451   1.536   1.332
  158SOL     OW  428   0.402   0.751   1.598
  158SOL    HW1  429   0.470   0.806   1.551
  158SOL    HW2  430   0.442   0.663   1.625
  159SOL     OW  431   1.587   0.779   1.670
  159SOL    HW1  432   1.495   0.817   1.665
  159SOL    HW2  433   1.647   0.826   1.605
  160SOL     OW  434   1.013   0.105   1.770
  160SOL    HW1  435   1.019   0.190   1.718
  160SOL    HW2  436   1.045   0.029   1.713
  161SOL     OW  437   0.504   0.050   1.740
  161SOL    HW1  438   0.462  -0.007   1.670
  161SOL    HW2  439   0.438   0.119   1.772
  162SOL     OW  440   0.573   0.870   1.029
  162SOL    HW1  441   0.617   0.959   1.020
  162SOL    HW2  442   0.510   0.870   1.106
  163SOL     OW  443   1.360   0.862   1.045
  163SOL    HW1  444   1.285   0.862   0.979
  163SOL    HW2  445   1.397   0.770   1.054
  164SOL     OW  446   1.209   0.525   0.275
  164SOL    HW1  447   1.222   0.441   0.329
  164SOL    HW2  448   1.180   0.599   0.335
  165SOL     OW  449   0.307   0.213   1.231
  165SOL    HW1  450   0.284   0.250   1.321
  165SOL    HW2  451   0.277   0.118   1.225
  166SOL     OW  452   0.037   1.310   1.282
  166SOL    HW1  453   0.090   1.261   1.350
  166SOL    HW2  454   0.059   1.408   1.287
  167SOL     OW  455   0.732   0.634   1.064
  167SOL    HW1  456   0.791   0.608   0.988
  167SOL    HW2  457   0.704   0.730   1.053
  168SOL     OW  458   1.728   0.935   1.854
  168SOL    HW1  459   1.682   0.928   1.765
  168SOL    HW2  460   1.666   0.979   1.920
  169SOL     OW  461   0.307   0.063   0.618
  169SOL    HW1  462   0.296   0.157   0.651
  169SOL    HW2  463   0.302   0.000   0.695
  170SOL     OW  464   1.622   0.367   0.374
  170SOL    HW1  465   1.624   0.291   0.438
  170SOL    HW2  466   1.574   0.444   0.414
  171SOL     OW  467   1.023   0.766   0.966
  171SOL    HW1  468   1.038   0.787   1.062
  171SOL    HW2  469   0.993   0.671   0.957
  172SOL     OW  470   0.980   1.573   1.700
  172SOL    HW1  471   0.960   1.617   1.612
  172SOL    HW2  472   1.019   1.482   1.684
  173SOL     OW  473   0.350   0.898   1.804
  173SOL    HW1  474   0.426   0.942   1.852
  173SOL    HW2  475   0.385   0.851   1.722
  174SOL     OW  476   1.540   0.274   0.125
  174SOL    HW1  477   1.479   0.199   0.148
  174SOL    HW2  478   1.562   0.326   0.208
  175SOL     OW  479   1.303   0.838   0.042
  175SOL    HW1  480   1.337   0.745   0.057
  175SOL    HW2  481   1.321   0.865  -0.053
  176SOL     OW  482   1.068   1.333   0.849
  176SOL    HW1  483   1.075   1.249   0.794
  176SOL    HW2  484   1.130   1.402   0.813
  177SOL     OW  485   0.319   0.810   0.949
  177SOL    HW1  486   0.412   0.846   0.954
  177SOL    HW2  487   0.313   0.725   1.001
  178SOL     OW  488   0.339   0.509   1.006
  178SOL    HW1  489   0.287   0.426   0.989
  178SOL    HW2  490   0.416   0.514   0.942
  179SOL     OW  491   1.138   0.380   1.678
  179SOL    HW1  492   1.093   0.443   1.742
  179SOL    HW2  493   1.231   0.411   1.661
  180SOL     OW  494   1.160   0.207   1.477
  180SOL    HW1  495   1.160   0.271   1.554
  180SOL    HW2  496   1.188   0.255   1.394
  181SOL     OW  497   0.008   1.326   0.200
  181SOL    HW1  498  -0.085   1.347   0.169
  181SOL    HW2  499   0.018   1.227   0.213
  182SOL     OW  500   0.088   1.801   0.927
  182SOL    HW1  501   0.046   1.715   0.900
  182SOL    HW2  502   0.182   1.804   0.893
  183SOL     OW  503   0.504   1.568   0.910
  183SOL    HW1  504   0.570   1.642   0.919
  183SOL    HW2  505   0.548   1.489   0.868
  184SOL     OW  506   1.002   0.796   1.238
  184SOL    HW1  507   1.043   0.764   1.324
  184SOL    HW2  508   0.906   0.769   1.235
  185SOL     OW  509   0.040   0.544   1.114
  185SOL    HW1  510   0.125   0.511   1.073
  185SOL    HW2  511   0.053   0.559   1.212
  186SOL     OW  512   0.189   0.520   1.722
  186SOL    HW1  513   0.248   0.480   1.652
  186SOL    HW2  514   0.131   0.591   1.681
  187SOL     OW  515   1.369   0.950   1.660
  187SOL    HW1  516   1.408   1.039   1.680
  187SOL    HW2  517   1.379   0.930   1.563
  188SOL     OW  518   0.815   0.572   0.325
  188SOL    HW1  519   0.822   0.483   0.279
  188SOL    HW2  520   0.721   0.606   0.317
  189SOL     OW  521   1.657   0.604   1.206
  189SOL    HW1  522   1.619   0.535   1.268
  189SOL    HW2  523   1.739   0.568   1.162
  190SOL     OW  524   0.252   1.564   1.744
  190SOL    HW1  525   0.222   1.621   1.820
  190SOL    HW2  526   0.245   1.467   1.770
  191SOL     OW  527   0.671   0.464   1.269
  191SOL    HW1  528   0.637   0.375   1.239
  191SOL    HW2  529   0.697   0.518   1.189
  192SOL     OW  530   0.930   1.678   1.465
  192SOL    HW1  531   0.906   1.660   1.370
  192SOL    HW2  532   0.960   1.772   1.475
  193SOL     OW  533   0.473   0.500   0.191
  193SOL    HW1  534   0.534   0.580   0.195
  193SOL    HW2  535   0.378   0.531   0.198
  194SOL     OW  536   0.159   1.137   1.466
  194SOL    HW1  537   0.181   1.076   1.542
  194SOL    HW2  538   0.169   1.088   1.380
  195SOL     OW  539   1.347   1.059   1.234
  195SOL    HW1  540   1.371   0.996   1.160
  195SOL    HW2  541   1.257   1.099   1.216
  196SOL     OW  542   1.302   0.855   0.309
  196SOL    HW1  543   1.216   0.824   0.351
  196SOL    HW2  544   1.298   0.841   0.210
  197SOL     OW  545   1.252   1.731   1.128
  197SOL    HW1  546   1.336   1.736   1.074
  197SOL    HW2  547   1.229   1.635   1.146
  198SOL     OW  548   0.083   1.258   1.022
  198SOL    HW1  549   0.078   1.257   1.122
  198SOL    HW2  550   0.000   1.217   0.984
  199SOL     OW  551   0.688   1.662   1.716
  199SOL    HW1  552   0.632   1.743   1.725
  199SOL    HW2  553   0.740   1.666   1.630
  200SOL     OW  554   0.903   0.086   0.133
  200SOL    HW1  555   0.954   0.087   0.047
  200SOL    HW2  556   0.959   0.044   0.204
  201SOL     OW  557   1.726   0.135   0.523
  201SOL    HW1  558   1.799   0.118   0.456
  201SOL    HW2  559   1.695   0.048   0.561
  202SOL     OW  560   1.388   1.573   0.477
  202SOL    HW1  561   1.455   1.585   0.403
  202SOL    HW2  562   1.348   1.662   0.500
  203SOL     OW  563   0.130   1.794   1.851
  203SOL    HW1  564   0.089   1.720   1.904
  203SOL    HW2  565   0.194   1.845   1.909
  204SOL     OW  566   1.280   0.927   0.672
  204SOL    HW1  567   1.340   0.846   0.674
  204SOL    HW2  568   1.320   0.996   0.612
  205SOL     OW  569   0.830   1.273   1.422
  205SOL    HW1  570   0.825   1.306   1.517
  205SOL    HW2  571   0.744   1.292   1.376
  206SOL     OW  572   0.672   1.616   0.154
  206SOL    HW1  573   0.681   1.626   0.055
  206SOL    HW2  574   0.632   1.527   0.175
  207SOL     OW  575   1.841   0.175   0.963
  207SOL    HW1  576   1.880   0.090   0.927
  207SOL    HW2  577   1.743   0.177   0.944
  208SOL     OW  578   0.263   0.326   0.720
  208SOL    HW1  579   0.184   0.377   0.686
  208SOL    HW2  580   0.254   0.311   0.818
  209SOL     OW  581   1.194   1.612   0.031
  209SOL    HW1  582   1.200   1.519   0.068
  209SOL    HW2  583   1.135   1.612  -0.049
  210SOL     OW  584   0.822   1.002   1.372
  210SOL    HW1  585   0.862   1.001   1.280
  210SOL    HW2  586   0.832   1.094   1.412
  211SOL     OW  587   0.916   0.910   0.291
  211SOL    HW1  588   0.979   0.948   0.223
  211SOL    HW2  589   0.956   0.827   0.330
  212SOL     OW  590   1.504   1.607   0.044
  212SOL    HW1  591   1.412   1.644   0.051
  212SOL    HW2  592   1.542   1.627  -0.046
  213SOL     OW  593   0.372   1.288   1.490
  213SOL    HW1  594   0.359   1.381   1.456
  213SOL    HW2  595   0.288   1.236   1.477
  214SOL     OW  596   1.614   1.292   1.289
  214SOL    HW1  597   1.674   1.295   1.369
  214SOL    HW2  598   1.539   1.356   1.302
  215SOL     OW  599   1.039   1.098   0.696
  215SOL    HW1  600   0.969   1.051   0.750
  215SOL    HW2  601   1.098   1.030   0.653
  216SOL     OW  602   1.014   0.236   0.971
  216SOL    HW1  603   1.006   0.200   0.878
  216SOL    HW2  604   1.012   0.160   1.036
  217SOL     OW  605   0.590   1.487   0.491
  217SOL    HW1  606   0.632   1.429   0.421
  217SOL    HW2  607   0.546   1.566   0.447
  218SOL     OW  608   1.709   0.385   1.381
  218SOL    HW1  609   1.782   0.454   1.385
  218SOL    HW2  610   1.737   0.310   1.322
  219SOL     OW  611   0.255   1.348   0.290
  219SOL    HW1  612   0.159   1.349   0.263
  219SOL    HW2  613   0.267   1.401   0.374
  220SOL     OW  614   0.105   1.013   1.726
  220SOL    HW1  615   0.028   0.980   1.780
  220SOL    HW2  616   0.190   0.983   1.768
  221SOL     OW  617   0.672   0.203   1.489
  221SOL    HW1  618   0.762   0.187   1.449
  221SOL    HW2  619   0.680   0.208   1.588
  222SOL     OW  620   0.075   0.345   0.033
  222SOL    HW1  621  -0.017   0.317   0.004
  222SOL    HW2  622   0.106   0.422  -0.023
  223SOL     OW  623   1.440   0.856   1.398
  223SOL    HW1  624   1.383   0.908   1.335
  223SOL    HW2  625   1.536   0.868   1.374
  224SOL     OW  626   0.072   0.166   0.318
  224SOL    HW1  627   0.055   0.249   0.264
  224SOL    HW2  628   0.162   0.129   0.296
  225SOL     OW  629   1.183   1.335   0.119
  225SOL    HW1  630   1.084   1.324   0.121
  225SOL    HW2  631   1.217   1.350   0.212
  226SOL     OW  632   0.613   0.842   1.431
  226SOL    HW1  633   0.669   0.923   1.414
  226SOL    HW2  634   0.672   0.762   1.434
  227SOL     OW  635   0.716   0.565   1.708
  227SOL    HW1  636   0.735   0.630   1.782
  227SOL    HW2  637   0.776   0.485   1.717
  228SOL     OW  638   1.450   1.220   1.633
  228SOL    HW1  639   1.441   1.210   1.732
  228SOL    HW2  640   1.546   1.213   1.607
  229SOL     OW  641   0.390   1.741   1.560
  229SOL    HW1  642   0.299   1.782   1.558
  229SOL    HW2  643   0.383   1.647   1.592
  230SOL     OW  644   1.674   0.883   1.254
  230SOL    HW1  645   1.647   0.794   1.217
  230SOL    HW2  646   1.675   0.951   1.181
  231SOL     OW  647   1.225   0.325   0.449
  231SOL    HW1  648   1.290   0.251   0.438
  231SOL    HW2  649   1.245   0.375   0.533
  232SOL     OW  650   0.594   0.745   0.652
  232SOL    HW1  651   0.644   0.830   0.633
  232SOL    HW2  652   0.506   0.747   0.604
  233SOL     OW  653   1.777   0.342   1.642
  233SOL    HW1  654   1.760   0.373   1.548
  233SOL    HW2  655   1.693   0.305   1.680
  234SOL     OW  656   1.730   0.934   1.517
  234SOL    HW1  657   1.768   1.025   1.532
  234SOL    HW2  658   1.722   0.917   1.418
  235SOL     OW  659   0.859   1.374   0.016
  235SOL    HW1  660   0.813   1.389   0.104
  235SOL    HW2  661   0.903   1.459  -0.014
  236SOL     OW  662   0.661   1.790   0.953
  236SOL    HW1  663   0.615   1.878   0.940
  236SOL    HW2  664   0.760   1.802   0.946
  237SOL     OW  665   0.859   0.956   0.861
  237SOL    HW1  666   0.913   0.887   0.909
  237SOL    HW2  667   0.827   1.025   0.927
  238SOL     OW  668   1.083   0.984   0.087
  238SOL    HW1  669   1.060   1.037   0.005
  238SOL    HW2  670   1.164   0.928   0.068
  239SOL     OW  671   1.861   1.569   0.851
  239SOL    HW1  672   1.790   1.557   0.781
  239SOL    HW2  673   1.862   1.490   0.911
  240SOL     OW  674   0.221   1.314   1.844
  240SOL    HW1  675   0.156   1.241   1.823
  240SOL    HW2  676   0.225   1.328   1.942
  241SOL     OW  677   0.079   1.240   0.653
  241SOL    HW1  678   0.078   1.193   0.741
  241SOL    HW2  679   0.161   1.212   0.602
  242SOL     OW  680   0.672   1.391   1.624
  242SOL    HW1  681   0.594   1.341   1.662
  242SOL    HW2  682   0.669   1.486   1.655
  243SOL     OW  683   1.824   0.192   1.227
  243SOL    HW1  684   1.820   0.102   1.271
  243SOL    HW2  685   1.827   0.181   1.128
  244SOL     OW  686   0.428   0.424   0.520
  244SOL    HW1  687   0.458   0.352   0.458
  244SOL    HW2  688   0.389   0.384   0.603
  245SOL     OW  689   0.317   0.547   1.280
  245SOL    HW1  690   0.355   0.488   1.352
  245SOL    HW2  691   0.357   0.521   1.192
  246SOL     OW  692   0.812   1.586   0.687
  246SOL    HW1  693   0.844   1.596   0.593
  246SOL    HW2  694   0.733   1.524   0.689
  247SOL     OW  695   1.424   0.214   1.112
  247SOL    HW1  696   1.476   0.149   1.167
  247SOL    HW2  697   1.375   0.277   1.173
  248SOL     OW  698   1.001   0.034   1.154
  248SOL    HW1  699   0.938  -0.038   1.123
  248SOL    HW2  700   1.094  -0.002   1.154
  249SOL     OW  701   0.770   1.330   0.301
  249SOL    HW1  702   0.724   1.243   0.318
  249SOL    HW2  703   0.861   1.327   0.342
  250SOL     OW  704   0.618   1.567   1.284
  250SOL    HW1  705   0.613   1.649   1.341
  250SOL    HW2  706   0.707   1.564   1.239
  251SOL     OW  707   1.352   0.052   0.168
  251SOL    HW1  708   1.387   0.011   0.084
  251SOL    HW2  709   1.262   0.014   0.188
  252SOL     OW  710   1.300   0.453   0.691
  252SOL    HW1  711   1.241   0.533   0.695
  252SOL    HW2  712   1.315   0.418   0.784
  253SOL     OW  713   1.593   0.221   0.882
  253SOL    HW1  714   1.509   0.220   0.936
  253SOL    HW2  715   1.595   0.304   0.826
  254SOL     OW  716   0.039   1.077   0.300
  254SOL    HW1  717   0.138   1.066   0.291
  254SOL    HW2  718  -0.001   0.991   0.332
  255SOL     OW  719   0.875   1.646   0.337
  255SOL    HW1  720   0.798   1.611   0.283
  255SOL    HW2  721   0.843   1.717   0.399
  256SOL     OW  722   0.230   0.628   1.975
  256SOL    HW1  723   0.137   0.626   2.012
  256SOL    HW2  724   0.231   0.589   1.883
  257SOL     OW  725   0.225   0.275   2.858
  257SOL    HW1  726   0.260   0.258   2.950
  257SOL    HW2  727   0.137   0.230   2.846
  258SOL     OW  728   0.019   0.368   2.509
  258SOL    HW1  729  -0.063   0.411   2.548
  258SOL    HW2  730  -0.009   0.295   2.446
  259SOL     OW  731   0.569   1.275   3.027
  259SOL    HW1  732   0.476   1.268   2.990
  259SOL    HW2  733   0.580   1.364   3.071
  260SOL     OW  734   1.555   1.511   2.565
  260SOL    HW1  735   1.498   1.495   2.646
  260SOL    HW2  736   1.496   1.521   2.485
  261SOL     OW  737   1.135   0.703   2.579
  261SOL    HW1  738   1.192   0.781   2.554
  261SOL    HW2  739   1.075   0.729   2.655
  262SOL     OW  740   1.755   0.607   2.093
  262SOL    HW1  741   1.743   0.594   1.994
  262SOL    HW2  742   1.725   0.526   2.142
  263SOL     OW  743   0.768   1.144   2.885
  263SOL    HW1  744   0.690   1.161   2.945
  263SOL    HW2  745   0.802   1.231   2.849
  264SOL     OW  746   0.850   0.798   3.685
  264SOL    HW1  747   0.846   0.874   3.750
  264SOL    HW2  748   0.872   0.834   3.594
  265SOL     OW  749   0.685   1.012   2.527
  265SOL    HW1  750   0.754   0.996   2.597
  265SOL    HW2  751   0.612   1.069   2.565
  266SOL     OW  752   0.686   1.161   3.665
  266SOL    HW1  753   0.746   1.240   3.679
  266SOL    HW2  754   0.600   1.192   3.624
  267SOL     OW  755   0.335   1.435   2.923
  267SOL    HW1  756   0.257   1.404   2.870
  267SOL    HW2  757   0.393   1.493   2.866
  268SOL     OW  758   1.460   1.505   3.201
  268SOL    HW1  759   1.484   1.599   3.227
  268SOL    HW2  760   1.444   1.451   3.283
  269SOL     OW  761   0.438   0.392   3.361
  269SOL    HW1  762   0.520   0.336   3.370
  269SOL    HW2  763   0.357   0.334   3.365
  270SOL     OW  764   1.603   0.447   2.599
  270SOL    HW1  765   1.529   0.493   2.549
  270SOL    HW2  766   1.654   0.515   2.652
  271SOL     OW  767   0.231   1.713   2.345
  271SOL    HW1  768   0.265   1.790   2.399
  271SOL    HW2  769   0.275   1.713   2.255
  272SOL     OW  770   1.127   1.341   3.552
  272SOL    HW1  771   1.174   1.341   3.640
  272SOL    HW2  772   1.079   1.254   3.541
  273SOL     OW  773   0.230   1.434   2.400
  273SOL    HW1  774   0.204   1.530   2.400
  273SOL    HW2  775   0.159   1.380   2.445
  274SOL     OW  776   0.240   1.091   2.748
  274SOL    HW1  777   0.254   1.007   2.800
  274SOL    HW2  778   0.185   1.155   2.803
  275SOL     OW  779   0.620   1.786   3.301
  275SOL    HW1  780   0.528   1.769   3.336
  275SOL    HW2  781   0.648   1.878   3.327
  276SOL     OW  782   0.606   0.964   1.985
  276SOL    HW1  783   0.613   1.048   1.931
  276SOL    HW2  784   0.652   0.977   2.073
  277SOL     OW  785   1.594   0.114   3.342
  277SOL    HW1  786   1.576   0.181   3.270
  277SOL    HW2  787   1.591   0.160   3.431
  278SOL     OW  788   0.122   0.643   2.425
  278SOL    HW1  789   0.077   0.555   2.442
  278SOL    HW2  790   0.121   0.697   2.509
  279SOL     OW  791   0.027   1.596   1.979
  279SOL    HW1  792   0.008   1.500   2.000
  279SOL    HW2  793  -0.006   1.654   2.054
  280SOL     OW  794   1.689   0.922   2.474
  280SOL    HW1  795   1.784   0.893   2.482
  280SOL    HW2  796   1.681   0.987   2.399
  281SOL     OW  797   1.641   1.108   2.294
  281SOL    HW1  798   1.727   1.110   2.242
  281SOL    HW2  799   1.655   1.155   2.382
  282SOL     OW  800   0.113   0.737   3.459
  282SOL    HW1  801   0.201   0.724   3.504
  282SOL    HW2  802   0.100   0.834   3.437
  283SOL     OW  803   0.613   1.365   2.588
  283SOL    HW1  804   0.564   1.278   2.597
  283SOL    HW2  805   0.590   1.408   2.501
  284SOL     OW  806   1.293   1.228   3.285
  284SOL    HW1  807   1.330   1.155   3.227
  284SOL    HW2  808   1.345   1.233   3.370
  285SOL     OW  809   0.809   0.004   2.364
  285SOL    HW1  810   0.849   0.095   2.355
  285SOL    HW2  811   0.709   0.012   2.370
  286SOL     OW  812   0.197   0.976   3.126
  286SOL    HW1  813   0.286   0.931   3.112
  286SOL    HW2  814   0.124   0.911   3.107
  287SOL     OW  815   1.525   0.999   2.052
  287SOL    HW1  816   1.462   0.923   2.065
  287SOL    HW2  817   1.573   1.017   2.138
  288SOL     OW  818   1.187   1.792   3.478
  288SOL    HW1  819   1.211   1.852   3.402
  288SOL    HW2  820   1.194   1.697   3.448
  289SOL     OW  821   0.317   0.251   3.663
  289SOL    HW1  822   0.388   0.322   3.669
  289SOL    HW2  823   0.229   0.290   3.691
  290SOL     OW  824   1.466   1.417   2.815
  290SOL    HW1  825   1.407   1.423   2.895
  290SOL    HW2  826   1.451   1.329   2.769
  291SOL     OW  827   1.667   1.714   2.434
  291SOL    HW1  828   1.626   1.691   2.346
  291SOL    HW2  829   1.649   1.640   2.499
  292SOL     OW  830   0.598   0.729   2.132
  292SOL    HW1  831   0.622   0.798   2.064
  292SOL    HW2  832   0.520   0.762   2.186
  293SOL     OW  833   1.281   0.345   2.806
  293SOL    HW1  834   1.195   0.295   2.793
  293SOL    HW2  835   1.343   0.291   2.862
  294SOL     OW  836   1.576   1.662   2.169
  294SOL    HW1  837   1.665   1.708   2.172
  294SOL    HW2  838   1.555   1.638   2.074
  295SOL     OW  839   0.807   0.605   3.327
  295SOL    HW1  840   0.760   0.602   3.416
  295SOL    HW2  841   0.756   0.550   3.261
  296SOL     OW  842   1.394   0.469   3.536
  296SOL    HW1  843   1.374   0.512   3.624
  296SOL    HW2  844   1.472   0.407   3.545
  297SOL     OW  845   0.973   0.890   3.434
  297SOL    HW1  846   1.019   0.806   3.405
  297SOL    HW2  847   0.917   0.924   3.359
  298SOL     OW  848   0.991   0.410   3.104
  298SOL    HW1  849   0.914   0.444   3.158
  298SOL    HW2  850   0.957   0.359   3.025
  299SOL     OW  851   1.041   0.701   2.291
  299SOL    HW1  852   1.067   0.697   2.387
  299SOL    HW2  853   0.956   0.650   2.277
  300SOL     OW  854   0.076   0.811   2.651
  300SOL    HW1  855   0.175   0.799   2.660
  300SOL    HW2  856   0.052   0.906   2.672
  301SOL     OW  857   0.130   1.821   3.433
  301SOL    HW1  858   0.120   1.806   3.532
  301SOL    HW2  859   0.044   1.857   3.397
  302SOL     OW  860   0.865   0.348   2.057
  302SOL    HW1  861   0.924   0.411   2.008
  302SOL    HW2  862   0.884   0.254   2.028
  303SOL     OW  863   1.719   0.585   3.693
  303SOL    HW1  864   1.693   0.674   3.657
  303SOL    HW2  865   1.717   0.517   3.620
  304SOL     OW  866   1.362   1.144   2.407
  304SOL    HW1  867   1.445   1.115   2.359
  304SOL    HW2  868   1.313   1.211   2.351
  305SOL     OW  869   0.550   0.196   2.747
  305SOL    HW1  870   0.545   0.191   2.847
  305SOL    HW2  871   0.552   0.292   2.718
  306SOL     OW  872   1.008   1.456   2.339
  306SOL    HW1  873   0.962   1.528   2.287
  306SOL    HW2  874   1.004   1.476   2.437
  307SOL     OW  875   0.351   1.801   2.715
  307SOL    HW1  876   0.401   1.715   2.721
  307SOL    HW2  877   0.416   1.878   2.712
  308SOL     OW  878   1.795   1.066   2.735
  308SOL    HW1  879   1.733   1.051   2.659
  308SOL    HW2  880   1.743   1.077   2.820
  309SOL     OW  881   1.227   1.550   3.368
  309SOL    HW1  882   1.233   1.473   3.432
  309SOL    HW2  883   1.175   1.524   3.288
  310SOL     OW  884   0.321   0.943   2.104
  310SOL    HW1  885   0.403   0.982   2.062
  310SOL    HW2  886   0.294   0.861   2.055
  311SOL     OW  887   1.458   0.735   2.590
  311SOL    HW1  888   1.453   0.670   2.665
  311SOL    HW2  889   1.538   0.794   2.603
  312SOL     OW  890   0.461   1.266   3.589
  312SOL    HW1  891   0.411   1.267   3.503
  312SOL    HW2  892   0.398   1.248   3.665
  313SOL     OW  893   1.111   1.776   2.099
  313SOL    HW1  894   1.051   1.714   2.149
  313SOL    HW2  895   1.142   1.732   2.014
  314SOL     OW  896   0.202   0.285   3.360
  314SOL    HW1  897   0.122   0.345   3.347
  314SOL    HW2  898   0.192   0.236   3.446
  315SOL     OW  899   1.632   1.377   1.943
  315SOL    HW1  900   1.600   1.471   1.933
  315SOL    HW2  901   1.556   1.314   1.931
  316SOL     OW  902   0.464   1.743   2.185
  316SOL    HW1  903   0.497   1.782   2.271
  316SOL    HW2  904   0.540   1.736   2.120
  317SOL     OW  905   1.400   0.107   2.288
  317SOL    HW1  906   1.376   0.070   2.198
  317SOL    HW2  907   1.499   0.123   2.292
  318SOL     OW  908   0.249   1.785   3.103
  318SOL    HW1  909   0.306   1.720   3.153
  318SOL    HW2  910   0.233   1.752   3.010
  319SOL     OW  911   0.940   1.698   2.766
  319SOL    HW1  912   1.020   1.641   2.787
  319SOL    HW2  913   0.891   1.658   2.689
  320SOL     OW  914   0.382   0.700   2.342
  320SOL    HW1  915   0.427   0.610   2.339
  320SOL    HW2  916   0.288   0.689   2.375
  321SOL     OW  917   1.547   0.222   3.591
  321SOL    HW1  918   1.542   0.259   3.683
  321SOL    HW2  919   1.475   0.153   3.579
  322SOL     OW  920   0.614   0.122   1.979
  322SOL    HW1  921   0.712   0.100   1.986
  322SOL    HW2  922   0.583   0.105   1.886
  323SOL     OW  923   0.781   0.264   3.611
  323SOL    HW1  924   0.848   0.203   3.654
  323SOL    HW2  925   0.708   0.283   3.676
  324SOL     OW  926   0.888   1.514   3.057
  324SOL    HW1  927   0.865   1.489   2.963
  324SOL    HW2  928   0.949   1.445   3.096
  325SOL     OW  929   1.351   0.590   3.295
  325SOL    HW1  930   1.379   0.547   3.380
  325SOL    HW2  931   1.376   0.686   3.296
  326SOL     OW  932   0.803   1.402   2.786
  326SOL    HW1  933   0.893   1.416   2.744
  326SOL    HW2  934   0.732   1.404   2.715
  327SOL     OW  935   0.922   0.503   2.761
  327SOL    HW1  936   0.897   0.494   2.665
  327SOL    HW2  937   0.970   0.421   2.792
  328SOL     OW  938   0.539   0.064   2.374
  328SOL    HW1  939   0.458   0.065   2.432
  328SOL    HW2  940   0.542   0.147   2.319
  329SOL     OW  941   1.434   1.188   1.903
  329SOL    HW1  942   1.466   1.112   1.960
  329SOL    HW2  943   1.342   1.215   1.933
  330SOL     OW  944   0.297   0.035   2.033
  330SOL    HW1  945   0.346   0.119   2.012
  330SOL    HW2  946   0.359  -0.030   2.078
  331SOL     OW  947   0.935   0.236   2.342
  331SOL    HW1  948   0.887   0.277   2.264
  331SOL    HW2  949   1.034   0.234   2.323
  332SOL     OW  950   1.076   0.683   3.326
  332SOL    HW1  951   0.996   0.622   3.329
  332SOL    HW2  952   1.157   0.630   3.302
  333SOL     OW  953   1.227   1.570   2.655
  333SOL    HW1  954   1.248   1.644   2.590
  333SOL    HW2  955   1.295   1.570   2.728
  334SOL     OW  956   0.459   1.152   2.603
  334SOL    HW1  957   0.388   1.125   2.668
  334SOL    HW2  958   0.433   1.124   2.510
  335SOL     OW  959   1.271   1.797   2.453
  335SOL    HW1  960   1.315   1.861   2.389
  335SOL    HW2  961   1.221   1.849   2.523
  336SOL     OW  962   1.032   0.549   1.878
  336SOL    HW1  963   0.991   0.631   1.839
  336SOL    HW2  964   1.096   0.575   1.951
  337SOL     OW  965   0.078   0.556   3.248
  337SOL    HW1  966   0.170   0.555   3.207
  337SOL    HW2  967   0.072   0.630   3.315
  338SOL     OW  968   0.561   0.222   3.009
  338SOL    HW1  969   0.599   0.138   3.046
  338SOL    HW2  970   0.473   0.241   3.053
  339SOL     OW  971   0.866   0.454   2.504
  339SOL    HW1  972   0.834   0.526   2.442
  339SOL    HW2  973   0.890   0.373   2.451
  340SOL     OW  974   1.017   0.039   2.615
  340SOL    HW1  975   0.945   0.044   2.546
  340SOL    HW2  976   0.993  -0.030   2.684
  341SOL     OW  977   1.429   1.173   2.729
  341SOL    HW1  978   1.374   1.089   2.722
  341SOL    HW2  979   1.455   1.202   2.637
  342SOL     OW  980   1.466   0.590   2.854
  342SOL    HW1  981   1.436   0.495   2.861
  342SOL    HW2  982   1.539   0.606   2.920
  343SOL     OW  983   1.857   0.833   2.239
  343SOL    HW1  984   1.899   0.769   2.303
  343SOL    HW2  985   1.819   0.782   2.161
  344SOL     OW  986   0.488   1.385   2.036
  344SOL    HW1  987   0.401   1.370   2.083
  344SOL    HW2  988   0.471   1.411   1.941
  345SOL     OW  989   1.664   1.280   2.519
  345SOL    HW1  990   1.763   1.288   2.533
  345SOL    HW2  991   1.619   1.364   2.550
  346SOL     OW  992   1.390   0.575   1.940
  346SOL    HW1  993   1.336   0.554   2.021
  346SOL    HW2  994   1.481   0.534   1.949
  347SOL     OW  995   0.527   0.256   2.190
  347SOL    HW1  996   0.554   0.197   2.115
  347SOL    HW2  997   0.527   0.351   2.159
  348SOL     OW  998   1.754   1.223   3.450
  348SOL    HW1  999   1.845   1.184   3.437
  348SOL    HW2 1000   1.762   1.319   3.474
  349SOL     OW 1001   1.064   1.347   3.202
  349SOL    HW1 1002   0.984   1.324   3.257
  349SOL    HW2 1003   1.147   1.321   3.251
  350SOL     OW 1004   1.592   1.629   3.487
  350SOL    HW1 1005   1.619   1.663   3.397
  350SOL    HW2 1006   1.671   1.591   3.533
  351SOL     OW 1007   1.111   1.195   2.962
  351SOL    HW1 1008   1.071   1.239   3.043
  351SOL    HW2 1009   1.070   1.232   2.879
  352SOL     OW 1010   1.638   1.099   2.941
  352SOL    HW1 1011   1.643   1.180   3.000
  352SOL    HW2 1012   1.552   1.101   2.890
  353SOL     OW 1013   0.915   0.089   3.264
  353SOL    HW1 1014   0.940   0.069   3.169
  353SOL    HW2 1015   0.987   0.145   3.306
  354SOL     OW 1016   0.980   1.116   3.581
  354SOL    HW1 1017   0.881   1.122   3.591
  354SOL    HW2 1018   1.003   1.036   3.525
  355SOL     OW 1019   0.705   1.050   2.230
  355SOL    HW1 1020   0.691   1.057   2.329
  355SOL    HW2 1021   0.789   0.999   2.212
  356SOL     OW 1022   0.410   0.813   3.113
  356SOL    HW1 1023   0.496   0.825   3.163
  356SOL    HW2 1024   0.368   0.726   3.140
  357SOL     OW 1025   1.274   0.386   3.124
  357SOL    HW1 1026   1.295   0.460   3.188
  357SOL    HW2 1027   1.185   0.403   3.081
  358SOL     OW 1028   0.064   1.564   3.193
  358SOL    HW1 1029   0.018   1.646   3.159
  358SOL    HW2 1030   0.162   1.583   3.202
  359SOL     OW 1031   0.367   1.100   2.363
  359SOL    HW1 1032   0.360   1.183   2.307
  359SOL    HW2 1033   0.371   1.020   2.303
  360SOL     OW 1034   0.566   0.537   2.727
  360SOL    HW1 1035   0.578   0.603   2.653
  360SOL    HW2 1036   0.612   0.571   2.810
  361SOL     OW 1037   1.252   1.348   2.250
  361SOL    HW1 1038   1.302   1.425   2.290
  361SOL    HW2 1039   1.157   1.350   2.282
  362SOL     OW 1040   1.272   1.445   3.004
  362SOL    HW1 1041   1.319   1.458   3.091
  362SOL    HW2 1042   1.206   1.371   3.013
  363SOL     OW 1043   1.582   0.639   2.334
  363SOL    HW1 1044   1.551   0.700   2.407
  363SOL    HW2 1045   1.632   0.691   2.265
  364SOL     OW 1046   0.354   1.510   3.191
  364SOL    HW1 1047   0.333   1.466   3.104
  364SOL    HW2 1048   0.451   1.536   3.194
  365SOL     OW 1049   0.402   0.751   3.460
  365SOL    HW1 1050   0.470   0.806   3.413
  365SOL    HW2 1051   0.442   0.663   3.487
  366SOL     OW 1052   1.587   0.779   3.532
  366SOL    HW1 1053   1.495   0.817   3.527
  366SOL    HW2 1054   1.647   0.826   3.467
  367SOL     OW 1055   1.013   0.105   3.632
  367SOL    HW1 1056   1.019   0.190   3.580
  367SOL    HW2 1057   1.045   0.029   3.575
  368SOL     OW 1058   0.504   0.050   3.602
  368SOL    HW1 1059   0.462  -0.007   3.532
  368SOL    HW2 1060   0.438   0.119   3.634
  369SOL     OW 1061   0.573   0.870   2.891
  369SOL    HW1 1062   0.617   0.959   2.882
  369SOL    HW2 1063   0.510   0.870   2.968
  370SOL     OW 1064   1.360   0.862   2.907
  370SOL    HW1 1065   1.285   0.862   2.841
  370SOL    HW2 1066   1.397   0.770   2.916
  371SOL     OW 1067   1.209   0.525   2.137
  371SOL    HW1 1068   1.222   0.441   2.191
  371SOL    HW2 1069   1.180   0.599   2.197
  372SOL     OW 1070   0.307   0.213   3.093
  372SOL    HW1 1071   0.284   0.250   3.183
  372SOL    HW2 1072   0.277   0.118   3.087
  373SOL     OW 1073   0.037   1.310   3.144
  373SOL    HW1 1074   0.090   1.261   3.212
  373SOL    HW2 1075   0.059   1.408   3.149
  374SOL     OW 1076   0.732   0.634   2.926
  374SOL    HW1 1077   0.791   0.608   2.850
  374SOL    HW2 1078   0.704   0.730   2.915
  375SOL     OW 1079   1.728   0.935   3.716
  375SOL    HW1 1080   1.682   0.928   3.627
  375SOL    HW2 1081   1.666   0.979   3.782
  376SOL     OW 1082   0.307   0.063   2.480
  376SOL    HW1 1083   0.296   0.157   2.513
  376SOL    HW2 1084   0.302   0.000   2.557
  377SOL     OW 1085   1.622   0.367   2.236
  377SOL    HW1 1086   1.624   0.291   2.300
  377SOL    HW2 1087   1.574   0.444   2.276
  378SOL     OW 1088   1.023   0.766   2.828
  378SOL    HW1 1089   1.038   0.787   2.924
  378SOL    HW2 1090   0.993   0.671   2.819
  379SOL     OW 1091   0.980   1.573   3.562
  379SOL    HW1 1092   0.960   1.617   3.474
  379SOL    HW2 1093   1.019   1.482   3.546
  380SOL     OW 1094   1.859   1.518   3.467
  380SOL    HW1 1095   1.873   1.545   3.372
  380SOL    HW2 1096   1.942   1.540   3.520
  381SOL     OW 1097   0.350   0.898   3.666
  381SOL    HW1 1098   0.426   0.942   3.714
  381SOL    HW2 1099   0.385   0.851   3.584
  382SOL     OW 1100   1.540   0.274   1.987
  382SOL    HW1 1101   1.479   0.199   2.010
  382SOL    HW2 1102   1.562   0.326   2.070
  383SOL     OW 1103   1.303   0.838   1.904
  383SOL    HW1 1104   1.337   0.745   1.919
  383SOL    HW2 1105   1.321   0.865   1.809
  384SOL     OW 1106   1.068   1.333   2.711
  384SOL    HW1 1107   1.075   1.249   2.656
  384SOL    HW2 1108   1.130   1.402   2.675
  385SOL     OW 1109   0.319   0.810   2.811
  385SOL    HW1 1110   0.412   0.846   2.816
  385SOL    HW2 1111   0.313   0.725   2.863
  386SOL     OW 1112   0.339   0.509   2.868
  386SOL    HW1 1113   0.287   0.426   2.851
  386SOL    HW2 1114   0.416   0.514   2.804
  387SOL     OW 1115   1.138   0.380   3.540
  387SOL    HW1 1116   1.093   0.443   3.604
  387SOL    HW2 1117   1.231   0.411   3.523
  388SOL     OW 1118   1.160   0.207   3.339
  388SOL    HW1 1119   1.160   0.271   3.416
  388SOL    HW2 1120   1.188   0.255   3.256
  389SOL     OW 1121   0.008   1.326   2.062
  389SOL    HW1 1122  -0.085   1.347   2.031
  389SOL    HW2 1123   0.018   1.227   2.075
  390SOL     OW 1124   0.088   1.801   2.789
  390SOL    HW1 1125   0.046   1.715   2.762
  390SOL    HW2 1126   0.182   1.804   2.755
  391SOL     OW 1127   0.504   1.568   2.772
  391SOL    HW1 1128   0.570   1.642   2.781
  391SOL    HW2 1129   0.548   1.489   2.730
  392SOL     OW 1130   1.002   0.796   3.100
  392SOL    HW1 1131   1.043   0.764   3.186
  392SOL    HW2 1132   0.906   0.769   3.097
  393SOL     OW 1133   0.040   0.544   2.976
  393SOL    HW1 1134   0.125   0.511   2.935
  393SOL    HW2 1135   0.053   0.559   3.074
  394SOL     OW 1136   0.189   0.520   3.584
  394SOL    HW1 1137   0.248   0.480   3.514
  394SOL    HW2 1138   0.131   0.591   3.543
  395SOL     OW 1139   1.369   0.950   3.522
  395SOL    HW1 1140   1.408   1.039   3.542
  395SOL    HW2 1141   1.379   0.930   3.425
  396SOL     OW 1142   0.815   0.572   2.187
  396SOL    HW1 1143   0.822   0.483   2.141
  396SOL    HW2 1144   0.721   0.606   2.179
  397SOL     OW 1145   1.657   0.604   3.068
  397SOL    HW1 1146   1.619   0.535   3.130
  397SOL    HW2 1147   1.739   0.568   3.024
  398SOL     OW 1148   0.252   1.564   3.606
  398SOL    HW1 1149   0.222   1.621   3.682
  398SOL    HW2 1150   0.245   1.467   3.632
  399SOL     OW 1151   0.671   0.464   3.131
  399SOL    HW1 1152   0.637   0.375   3.101
  399SOL    HW2 1153   0.697   0.518   3.051
  400SOL     OW 1154   0.930   1.678   3.327
  400SOL    HW1 1155   0.906   1.660   3.232
  400SOL    HW2 1156   0.960   1.772   3.337
  401SOL     OW 1157   0.473   0.500   2.053
  401SOL    HW1 1158   0.534   0.580   2.057
  401SOL    HW2 1159   0.378   0.531   2.060
  402SOL     OW 1160   0.159   1.137   3.328
  402SOL    HW1 1161   0.181   1.076   3.404
  402SOL    HW2 1162   0.169   1.088   3.242
  403SOL     OW 1163   1.347   1.059   3.096
  403SOL    HW1 1164   1.371   0.996   3.022
  403SOL    HW2 1165   1.257   1.099   3.078
  404SOL     OW 1166   1.302   0.855   2.171
  404SOL    HW1 1167   1.216   0.824   2.213
  404SOL    HW2 1168   1.298   0.841   2.072
  405SOL     OW 1169   1.759   1.747   3.016
  405SOL    HW1 1170   1.820   1.777   2.943
  405SOL    HW2 1171   1.721   1.658   2.994
  406SOL     OW 1172   1.252   1.731   2.990
  406SOL    HW1 1173   1.336   1.736   2.936
  406SOL    HW2 1174   1.229   1.635   3.008
  407SOL     OW 1175   0.083   1.258   2.884
  407SOL    HW1 1176   0.078   1.257   2.984
  407SOL    HW2 1177   0.000   1.217   2.846
  408SOL     OW 1178   0.688   1.662   3.578
  408SOL    HW1 1179   0.632   1.743   3.587
  408SOL    HW2 1180   0.740   1.666   3.492
  409SOL     OW 1181   1.726   0.135   2.385
  409SOL    HW1 1182   1.799   0.118   2.318
  409SOL    HW2 1183   1.695   0.048   2.423
  410SOL     OW 1184   1.388   1.573   2.339
  410SOL    HW1 1185   1.455   1.585   2.265
  410SOL    HW2 1186   1.348   1.662   2.362
  411SOL     OW 1187   0.130   1.794   3.713
  411SOL    HW1 1188   0.089   1.720   3.766
  411SOL    HW2 1189   0.194   1.845   3.771
  412SOL     OW 1190   1.280   0.927   2.534
  412SOL    HW1 1191   1.340   0.846   2.536
  412SOL    HW2 1192   1.320   0.996   2.474
  413SOL     OW 1193   0.830   1.273   3.284
  413SOL    HW1 1194   0.825   1.306   3.379
  413SOL    HW2 1195   0.744   1.292   3.238
  414SOL     OW 1196   0.672   1.616   2.016
  414SOL    HW1 1197   0.681   1.626   1.917
  414SOL    HW2 1198   0.632   1.527   2.037
  415SOL     OW 1199   1.650   1.720   3.256
  415SOL    HW1 1200   1.703   1.730   3.172
  415SOL    HW2 1201   1.623   1.810   3.290
  416SOL     OW 1202   1.841   0.175   2.825
  416SOL    HW1 1203   1.880   0.090   2.789
  416SOL    HW2 1204   1.743   0.177   2.806
  417SOL     OW 1205   0.263   0.326   2.582
  417SOL    HW1 1206   0.184   0.377   2.548
  417SOL    HW2 1207   0.254   0.311   2.680
  418SOL     OW 1208   1.194   1.612   1.893
  418SOL    HW1 1209   1.200   1.519   1.930
  418SOL    HW2 1210   1.135   1.612   1.813
  419SOL     OW 1211   0.822   1.002   3.234
  419SOL    HW1 1212   0.862   1.001   3.142
  419SOL    HW2 1213   0.832   1.094   3.274
  420SOL     OW 1214   0.916   0.910   2.153
  420SOL    HW1 1215   0.979   0.948   2.085
  420SOL    HW2 1216   0.956   0.827   2.192
  421SOL     OW 1217   1.504   1.607   1.906
  421SOL    HW1 1218   1.412   1.644   1.913
  421SOL    HW2 1219   1.542   1.627   1.816
  422SOL     OW 1220   0.372   1.288   3.352
  422SOL    HW1 1221   0.359   1.381   3.318
  422SOL    HW2 1222   0.288   1.236   3.339
  423SOL     OW 1223   1.614   1.292   3.151
  423SOL    HW1 1224   1.674   1.295   3.231
  423SOL    HW2 1225   1.539   1.356   3.164
  424SOL     OW 1226   1.039   1.098   2.558
  424SOL    HW1 1227   0.969   1.051   2.612
  424SOL    HW2 1228   1.098   1.030   2.515
  425SOL     OW 1229   1.014   0.236   2.833
  425SOL    HW1 1230   1.006   0.200   2.740
  425SOL    HW2 1231   1.012   0.160   2.898
  426SOL     OW 1232   0.590   1.487   2.353
  426SOL    HW1 1233   0.632   1.429   2.283
  426SOL    HW2 1234   0.546   1.566   2.309
  427SOL     OW 1235   1.709   0.385   3.243
  427SOL    HW1 1236   1.782   0.454   3.247
  427SOL    HW2 1237   1.737   0.310   3.184
  428SOL     OW 1238   0.255   1.348   2.152
  428SOL    HW1 1239   0.159   1.349   2.125
  428SOL    HW2 1240   0.267   1.401   2.236
  429SOL     OW 1241   0.105   1.013   3.588
  429SOL    HW1 1242   0.028   0.980   3.642
  429SOL    HW2 1243   0.190   0.983   3.630
  430SOL     OW 1244   0.672   0.203   3.351
  430SOL    HW1 1245   0.762   0.187   3.311
  430SOL    HW2 1246   0.680   0.208   3.450
  431SOL     OW 1247   0.075   0.345   1.895
  431SOL    HW1 1248  -0.017   0.317   1.866
  431SOL    HW2 1249   0.106   0.422   1.839
  432SOL     OW 1250   1.440   0.856   3.260
  432SOL    HW1 1251   1.383   0.908   3.197
  432SOL    HW2 1252   1.536   0.868   3.236
  433SOL     OW 1253   0.072   0.166   2.180
  433SOL    HW1 1254   0.055   0.249   2.126
  433SOL    HW2 1255   0.162   0.129   2.158
  434SOL     OW 1256   1.183   1.335   1.981
  434SOL    HW1 1257   1.084   1.324   1.983
  434SOL    HW2 1258   1.217   1.350   2.074
  435SOL     OW 1259   0.613   0.842   3.293
  435SOL    HW1 1260   0.669   0.923   3.276
  435SOL    HW2 1261   0.672   0.762   3.296
  436SOL     OW 1262   1.493   1.767   2.821
  436SOL    HW1 1263   1.526   1.831   2.752
  436SOL    HW2 1264   1.559   1.761   2.896
  437SOL     OW 1265   0.716   0.565   3.570
  437SOL    HW1 1266   0.735   0.630   3.644
  437SOL    HW2 1267   0.776   0.485   3.579
  438SOL     OW 1268   1.450   1.220   3.495
  438SOL    HW1 1269   1.441   1.210   3.594
  438SOL    HW2 1270   1.546   1.213   3.469
  439SOL     OW 1271   0.390   1.741   3.422
  439SOL    HW1 1272   0.299   1.782   3.420
  439SOL    HW2 1273   0.383   1.647   3.454
  440SOL     OW 1274   1.674   0.883   3.116
  440SOL    HW1 1275   1.647   0.794   3.079
  440SOL    HW2 1276   1.675   0.951   3.043
  441SOL     OW 1277   1.225   0.325   2.311
  441SOL    HW1 1278   1.290   0.251   2.300
  441SOL    HW2 1279   1.245   0.375   2.395
  442SOL     OW 1280   0.594   0.745   2.514
  442SOL    HW1 1281   0.644   0.830   2.495
  442SOL    HW2 1282   0.506   0.747   2.466
  443SOL     OW 1283   1.777   0.342   3.504
  443SOL    HW1 1284   1.760   0.373   3.410
  443SOL    HW2 1285   1.693   0.305   3.542
  444SOL     OW 1286   1.730   0.934   3.379
  444SOL    HW1 1287   1.768   1.025   3.394
  444SOL    HW2 1288   1.722   0.917   3.280
  445SOL     OW 1289   0.859   1.374   1.878
  445SOL    HW1 1290   0.813   1.389   1.966
  445SOL    HW2 1291   0.903   1.459   1.848
  446SOL     OW 1292   0.661   1.790   2.815
  446SOL    HW1 1293   0.615   1.878   2.802
  446SOL    HW2 1294   0.760   1.802   2.808
  447SOL     OW 1295   0.859   0.956   2.723
  447SOL    HW1 1296   0.913   0.887   2.771
  447SOL    HW2 1297   0.827   1.025   2.789
  448SOL     OW 1298   1.083   0.984   1.949
  448SOL    HW1 1299   1.060   1.037   1.867
  448SOL    HW2 1300   1.164   0.928   1.930
  449SOL     OW 1301   1.861   1.569   2.713
  449SOL    HW1 1302   1.790   1.557   2.643
  449SOL    HW2 1303   1.862   1.490   2.773
  450SOL     OW 1304   0.221   1.314   3.706
  450SOL    HW1 1305   0.156   1.241   3.685
  450SOL    HW2 1306   0.225   1.328   3.804
  451SOL     OW 1307   0.079   1.240   2.515
  451SOL    HW1 1308   0.078   1.193   2.603
  451SOL    HW2 1309   0.161   1.212   2.464
  452SOL     OW 1310   0.672   1.391   3.486
  452SOL    HW1 1311   0.594   1.341   3.524
  452SOL    HW2 1312   0.669   1.486   3.517
  453SOL     OW 1313   1.824   0.192   3.089
  453SOL    HW1 1314   1.820   0.102   3.133
  453SOL    HW2 1315   1.827   0.181   2.990
  454SOL     OW 1316   0.428   0.424   2.382
  454SOL    HW1 1317   0.458   0.352   2.320
  454SOL    HW2 1318   0.389   0.384   2.465
  455SOL     OW 1319   1.705   1.487   2.966
  455SOL    HW1 1320   1.612   1.462   2.939
  455SOL    HW2 1321   1.731   1.437   3.048
  456SOL     OW 1322   0.317   0.547   3.142
  456SOL    HW1 1323   0.355   0.488   3.214
  456SOL    HW2 1324   0.357   0.521   3.054
  457SOL     OW 1325   0.812   1.586   2.549
  457SOL    HW1 1326   0.844   1.596   2.455
  457SOL    HW2 1327   0.733   1.524   2.551
  458SOL     OW 1328   1.424   0.214   2.974
  458SOL    HW1 1329   1.476   0.149   3.029
  458SOL    HW2 1330   1.375   0.277   3.035
  459SOL     OW 1331   1.001   0.034   3.016
  459SOL    HW1 1332   0.938  -0.038   2.985
  459SOL    HW2 1333   1.094  -0.002   3.016
  460SOL     OW 1334   0.770   1.330   2.163
  460SOL    HW1 1335   0.724   1.243   2.180
  460SOL    HW2 1336   0.861   1.327   2.204
  461SOL     OW 1337   0.618   1.567   3.146
  461SOL    HW1 1338   0.613   1.649   3.203
  461SOL    HW2 1339   0.707   1.564   3.101
  462SOL     OW 1340   1.352   0.052   2.030
  462SOL    HW1 1341   1.387   0.011   1.946
  462SOL    HW2 1342   1.262   0.014   2.050
  463SOL     OW 1343   1.300   0.453   2.553
  463SOL    HW1 1344   1.241   0.533   2.557
  463SOL    HW2 1345   1.315   0.418   2.646
  464SOL     OW 1346   1.593   0.221   2.744
  464SOL    HW1 1347   1.509   0.220   2.798
  464SOL    HW2 1348   1.595   0.304   2.688
  465SOL     OW 1349   0.039   1.077   2.162
  465SOL    HW1 1350   0.138   1.066   2.153
  465SOL    HW2 1351  -0.001   0.991   2.194
  466SOL     OW 1352   0.875   1.646   2.199
  466SOL    HW1 1353   0.798   1.611   2.145
  466SOL    HW2 1354   0.843   1.717   2.261
  467SOL     OW 1355   0.230   2.490   0.113
  467SOL    HW1 1356   0.137   2.488   0.150
  467SOL    HW2 1357   0.231   2.451   0.021
  468SOL     OW 1358   0.225   2.137   0.996
  468SOL    HW1 1359   0.260   2.120   1.088
  468SOL    HW2 1360   0.137   2.092   0.984
  469SOL     OW 1361   0.019   2.230   0.647
  469SOL    HW1 1362  -0.063   2.273   0.686
  469SOL    HW2 1363  -0.009   2.157   0.584
  470SOL     OW 1364   0.569   3.137   1.165
  470SOL    HW1 1365   0.476   3.130   1.128
  470SOL    HW2 1366   0.580   3.226   1.209
  471SOL     OW 1367   1.555   3.373   0.703
  471SOL    HW1 1368   1.498   3.357   0.784
  471SOL    HW2 1369   1.496   3.383   0.623
  472SOL     OW 1370   1.135   2.565   0.717
  472SOL    HW1 1371   1.192   2.643   0.692
  472SOL    HW2 1372   1.075   2.591   0.793
  473SOL     OW 1373   1.755   2.469   0.231
  473SOL    HW1 1374   1.743   2.456   0.132
  473SOL    HW2 1375   1.725   2.388   0.280
  474SOL     OW 1376   0.768   3.006   1.023
  474SOL    HW1 1377   0.690   3.023   1.083
  474SOL    HW2 1378   0.802   3.093   0.987
  475SOL     OW 1379   0.850   2.660   1.823
  475SOL    HW1 1380   0.846   2.736   1.888
  475SOL    HW2 1381   0.872   2.696   1.732
  476SOL     OW 1382   0.685   2.874   0.665
  476SOL    HW1 1383   0.754   2.858   0.735
  476SOL    HW2 1384   0.612   2.931   0.703
  477SOL     OW 1385   0.686   3.023   1.803
  477SOL    HW1 1386   0.746   3.102   1.817
  477SOL    HW2 1387   0.600   3.054   1.762
  478SOL     OW 1388   0.335   3.297   1.061
  478SOL    HW1 1389   0.257   3.266   1.008
  478SOL    HW2 1390   0.393   3.355   1.004
  479SOL     OW 1391   1.460   3.367   1.339
  479SOL    HW1 1392   1.484   3.461   1.365
  479SOL    HW2 1393   1.444   3.313   1.421
  480SOL     OW 1394   0.438   2.254   1.499
  480SOL    HW1 1395   0.520   2.198   1.508
  480SOL    HW2 1396   0.357   2.196   1.503
  481SOL     OW 1397   1.603   2.309   0.737
  481SOL    HW1 1398   1.529   2.355   0.687
  481SOL    HW2 1399   1.654   2.377   0.790
  482SOL     OW 1400   0.231   3.575   0.483
  482SOL    HW1 1401   0.265   3.652   0.537
  482SOL    HW2 1402   0.275   3.575   0.393
  483SOL     OW 1403   1.127   3.203   1.690
  483SOL    HW1 1404   1.174   3.203   1.778
  483SOL    HW2 1405   1.079   3.116   1.679
  484SOL     OW 1406   0.230   3.296   0.538
  484SOL    HW1 1407   0.204   3.392   0.538
  484SOL    HW2 1408   0.159   3.242   0.583
  485SOL     OW 1409   0.240   2.953   0.886
  485SOL    HW1 1410   0.254   2.869   0.938
  485SOL    HW2 1411   0.185   3.017   0.941
  486SOL     OW 1412   0.620   3.648   1.439
  486SOL    HW1 1413   0.528   3.631   1.474
  486SOL    HW2 1414   0.648   3.740   1.465
  487SOL     OW 1415   0.606   2.826   0.123
  487SOL    HW1 1416   0.613   2.910   0.069
  487SOL    HW2 1417   0.652   2.839   0.211
  488SOL     OW 1418   0.122   2.505   0.563
  488SOL    HW1 1419   0.077   2.417   0.580
  488SOL    HW2 1420   0.121   2.559   0.647
  489SOL     OW 1421   1.842   3.629   0.359
  489SOL    HW1 1422   1.896   3.600   0.439
  489SOL    HW2 1423   1.872   3.719   0.330
  490SOL     OW 1424   0.027   3.458   0.117
  490SOL    HW1 1425   0.008   3.362   0.138
  490SOL    HW2 1426  -0.006   3.516   0.192
  491SOL     OW 1427   1.689   2.784   0.612
  491SOL    HW1 1428   1.784   2.755   0.620
  491SOL    HW2 1429   1.681   2.849   0.537
  492SOL     OW 1430   1.641   2.970   0.432
  492SOL    HW1 1431   1.727   2.972   0.380
  492SOL    HW2 1432   1.655   3.017   0.520
  493SOL     OW 1433   0.113   2.599   1.597
  493SOL    HW1 1434   0.201   2.586   1.642
  493SOL    HW2 1435   0.100   2.696   1.575
  494SOL     OW 1436   0.613   3.227   0.726
  494SOL    HW1 1437   0.564   3.140   0.735
  494SOL    HW2 1438   0.590   3.270   0.639
  495SOL     OW 1439   1.293   3.090   1.423
  495SOL    HW1 1440   1.330   3.017   1.365
  495SOL    HW2 1441   1.345   3.095   1.508
  496SOL     OW 1442   0.809   1.866   0.502
  496SOL    HW1 1443   0.849   1.957   0.493
  496SOL    HW2 1444   0.709   1.874   0.508
  497SOL     OW 1445   0.197   2.838   1.264
  497SOL    HW1 1446   0.286   2.793   1.250
  497SOL    HW2 1447   0.124   2.773   1.245
  498SOL     OW 1448   1.525   2.861   0.190
  498SOL    HW1 1449   1.462   2.785   0.203
  498SOL    HW2 1450   1.573   2.879   0.276
  499SOL     OW 1451   1.187   3.654   1.616
  499SOL    HW1 1452   1.211   3.714   1.540
  499SOL    HW2 1453   1.194   3.559   1.586
  500SOL     OW 1454   0.317   2.113   1.801
  500SOL    HW1 1455   0.388   2.184   1.807
  500SOL    HW2 1456   0.229   2.152   1.829
  501SOL     OW 1457   1.466   3.279   0.953
  501SOL    HW1 1458   1.407   3.285   1.033
  501SOL    HW2 1459   1.451   3.191   0.907
  502SOL     OW 1460   1.667   3.576   0.572
  502SOL    HW1 1461   1.626   3.553   0.484
  502SOL    HW2 1462   1.649   3.502   0.637
  503SOL     OW 1463   0.598   2.591   0.270
  503SOL    HW1 1464   0.622   2.660   0.202
  503SOL    HW2 1465   0.520   2.624   0.324
  504SOL     OW 1466   1.281   2.207   0.944
  504SOL    HW1 1467   1.195   2.157   0.931
  504SOL    HW2 1468   1.343   2.153   1.000
  505SOL     OW 1469   1.576   3.524   0.307
  505SOL    HW1 1470   1.665   3.570   0.310
  505SOL    HW2 1471   1.555   3.500   0.212
  506SOL     OW 1472   0.807   2.467   1.465
  506SOL    HW1 1473   0.760   2.464   1.554
  506SOL    HW2 1474   0.756   2.412   1.399
  507SOL     OW 1475   1.394   2.331   1.674
  507SOL    HW1 1476   1.374   2.374   1.762
  507SOL    HW2 1477   1.472   2.269   1.683
  508SOL     OW 1478   0.973   2.752   1.572
  508SOL    HW1 1479   1.019   2.668   1.543
  508SOL    HW2 1480   0.917   2.786   1.497
  509SOL     OW 1481   0.991   2.272   1.242
  509SOL    HW1 1482   0.914   2.306   1.296
  509SOL    HW2 1483   0.957   2.221   1.163
  510SOL     OW 1484   1.041   2.563   0.429
  510SOL    HW1 1485   1.067   2.559   0.525
  510SOL    HW2 1486   0.956   2.512   0.415
  511SOL     OW 1487   0.076   2.673   0.789
  511SOL    HW1 1488   0.175   2.661   0.798
  511SOL    HW2 1489   0.052   2.768   0.810
  512SOL     OW 1490   0.130   3.683   1.571
  512SOL    HW1 1491   0.120   3.668   1.670
  512SOL    HW2 1492   0.044   3.719   1.535
  513SOL     OW 1493   0.865   2.210   0.195
  513SOL    HW1 1494   0.924   2.273   0.146
  513SOL    HW2 1495   0.884   2.116   0.166
  514SOL     OW 1496   1.362   3.006   0.545
  514SOL    HW1 1497   1.445   2.977   0.497
  514SOL    HW2 1498   1.313   3.073   0.489
  515SOL     OW 1499   0.550   2.058   0.885
  515SOL    HW1 1500   0.545   2.053   0.985
  515SOL    HW2 1501   0.552   2.154   0.856
  516SOL     OW 1502   1.008   3.318   0.477
  516SOL    HW1 1503   0.962   3.390   0.425
  516SOL    HW2 1504   1.004   3.338   0.575
  517SOL     OW 1505   0.351   3.663   0.853
  517SOL    HW1 1506   0.401   3.577   0.859
  517SOL    HW2 1507   0.416   3.740   0.850
  518SOL     OW 1508   1.795   2.928   0.873
  518SOL    HW1 1509   1.733   2.913   0.797
  518SOL    HW2 1510   1.743   2.939   0.958
  519SOL     OW 1511   1.227   3.412   1.506
  519SOL    HW1 1512   1.233   3.335   1.570
  519SOL    HW2 1513   1.175   3.386   1.426
  520SOL     OW 1514   0.321   2.805   0.242
  520SOL    HW1 1515   0.403   2.844   0.200
  520SOL    HW2 1516   0.294   2.723   0.193
  521SOL     OW 1517   1.458   2.597   0.728
  521SOL    HW1 1518   1.453   2.532   0.803
  521SOL    HW2 1519   1.538   2.656   0.741
  522SOL     OW 1520   0.461   3.128   1.727
  522SOL    HW1 1521   0.411   3.129   1.641
  522SOL    HW2 1522   0.398   3.110   1.803
  523SOL     OW 1523   1.111   3.638   0.237
  523SOL    HW1 1524   1.051   3.576   0.287
  523SOL    HW2 1525   1.142   3.594   0.152
  524SOL     OW 1526   0.202   2.147   1.498
  524SOL    HW1 1527   0.122   2.207   1.485
  524SOL    HW2 1528   0.192   2.098   1.584
  525SOL     OW 1529   1.632   3.239   0.081
  525SOL    HW1 1530   1.600   3.333   0.071
  525SOL    HW2 1531   1.556   3.176   0.069
  526SOL     OW 1532   0.464   3.605   0.323
  526SOL    HW1 1533   0.497   3.644   0.409
  526SOL    HW2 1534   0.540   3.598   0.258
  527SOL     OW 1535   1.400   1.969   0.426
  527SOL    HW1 1536   1.376   1.932   0.336
  527SOL    HW2 1537   1.499   1.985   0.430
  528SOL     OW 1538   0.249   3.647   1.241
  528SOL    HW1 1539   0.306   3.582   1.291
  528SOL    HW2 1540   0.233   3.614   1.148
  529SOL     OW 1541   0.940   3.560   0.904
  529SOL    HW1 1542   1.020   3.503   0.925
  529SOL    HW2 1543   0.891   3.520   0.827
  530SOL     OW 1544   0.382   2.562   0.480
  530SOL    HW1 1545   0.427   2.472   0.477
  530SOL    HW2 1546   0.288   2.551   0.513
  531SOL     OW 1547   1.547   2.084   1.729
  531SOL    HW1 1548   1.542   2.121   1.821
  531SOL    HW2 1549   1.475   2.015   1.717
  532SOL     OW 1550   0.614   1.984   0.117
  532SOL    HW1 1551   0.712   1.962   0.124
  532SOL    HW2 1552   0.583   1.967   0.024
  533SOL     OW 1553   0.781   2.126   1.749
  533SOL    HW1 1554   0.848   2.065   1.792
  533SOL    HW2 1555   0.708   2.145   1.814
  534SOL     OW 1556   0.888   3.376   1.195
  534SOL    HW1 1557   0.865   3.351   1.101
  534SOL    HW2 1558   0.949   3.307   1.234
  535SOL     OW 1559   1.351   2.452   1.433
  535SOL    HW1 1560   1.379   2.409   1.518
  535SOL    HW2 1561   1.376   2.548   1.434
  536SOL     OW 1562   0.803   3.264   0.924
  536SOL    HW1 1563   0.893   3.278   0.882
  536SOL    HW2 1564   0.732   3.266   0.853
  537SOL     OW 1565   0.922   2.365   0.899
  537SOL    HW1 1566   0.897   2.356   0.803
  537SOL    HW2 1567   0.970   2.283   0.930
  538SOL     OW 1568   0.539   1.926   0.512
  538SOL    HW1 1569   0.458   1.927   0.570
  538SOL    HW2 1570   0.542   2.009   0.457
  539SOL     OW 1571   1.434   3.050   0.041
  539SOL    HW1 1572   1.466   2.974   0.098
  539SOL    HW2 1573   1.342   3.077   0.071
  540SOL     OW 1574   0.297   1.897   0.171
  540SOL    HW1 1575   0.346   1.981   0.150
  540SOL    HW2 1576   0.359   1.832   0.216
  541SOL     OW 1577   0.935   2.098   0.480
  541SOL    HW1 1578   0.887   2.139   0.402
  541SOL    HW2 1579   1.034   2.096   0.461
  542SOL     OW 1580   1.076   2.545   1.464
  542SOL    HW1 1581   0.996   2.484   1.467
  542SOL    HW2 1582   1.157   2.492   1.440
  543SOL     OW 1583   1.227   3.432   0.793
  543SOL    HW1 1584   1.248   3.506   0.728
  543SOL    HW2 1585   1.295   3.432   0.866
  544SOL     OW 1586   0.459   3.014   0.741
  544SOL    HW1 1587   0.388   2.987   0.806
  544SOL    HW2 1588   0.433   2.986   0.648
  545SOL     OW 1589   1.271   3.659   0.591
  545SOL    HW1 1590   1.315   3.723   0.527
  545SOL    HW2 1591   1.221   3.711   0.661
  546SOL     OW 1592   1.032   2.411   0.016
  546SOL    HW1 1593   0.991   2.493  -0.023
  546SOL    HW2 1594   1.096   2.437   0.089
  547SOL     OW 1595   0.078   2.418   1.386
  547SOL    HW1 1596   0.170   2.417   1.345
  547SOL    HW2 1597   0.072   2.492   1.453
  548SOL     OW 1598   0.561   2.084   1.147
  548SOL    HW1 1599   0.599   2.000   1.184
  548SOL    HW2 1600   0.473   2.103   1.191
  549SOL     OW 1601   0.866   2.316   0.642
  549SOL    HW1 1602   0.834   2.388   0.580
  549SOL    HW2 1603   0.890   2.235   0.589
  550SOL     OW 1604   1.017   1.901   0.753
  550SOL    HW1 1605   0.945   1.906   0.684
  550SOL    HW2 1606   0.993   1.832   0.822
  551SOL     OW 1607   1.429   3.035   0.867
  551SOL    HW1 1608   1.374   2.951   0.860
  551SOL    HW2 1609   1.455   3.064   0.775
  552SOL     OW 1610   1.466   2.452   0.992
  552SOL    HW1 1611   1.436   2.357   0.999
  552SOL    HW2 1612   1.539   2.468   1.058
  553SOL     OW 1613   1.857   2.695   0.377
  553SOL    HW1 1614   1.899   2.631   0.441
  553SOL    HW2 1615   1.819   2.644   0.299
  554SOL     OW 1616   0.488   3.247   0.174
  554SOL    HW1 1617   0.401   3.232   0.221
  554SOL    HW2 1618   0.471   3.273   0.079
  555SOL     OW 1619   1.664   3.142   0.657
  555SOL    HW1 1620   1.763   3.150   0.671
  555SOL    HW2 1621   1.619   3.226   0.688
  556SOL     OW 1622   1.390   2.437   0.078
  556SOL    HW1 1623   1.336   2.416   0.159
  556SOL    HW2 1624   1.481   2.396   0.087
  557SOL     OW 1625   0.527   2.118   0.328
  557SOL    HW1 1626   0.554   2.059   0.253
  557SOL    HW2 1627   0.527   2.213   0.297
  558SOL     OW 1628   1.754   3.085   1.588
  558SOL    HW1 1629   1.845   3.046   1.575
  558SOL    HW2 1630   1.762   3.181   1.612
  559SOL     OW 1631   1.064   3.209   1.340
  559SOL    HW1 1632   0.984   3.186   1.395
  559SOL    HW2 1633   1.147   3.183   1.389
  560SOL     OW 1634   1.592   3.491   1.625
  560SOL    HW1 1635   1.619   3.525   1.535
  560SOL    HW2 1636   1.671   3.453   1.671
  561SOL     OW 1637   1.111   3.057   1.100
  561SOL    HW1 1638   1.071   3.101   1.181
  561SOL    HW2 1639   1.070   3.094   1.017
  562SOL     OW 1640   1.638   2.961   1.079
  562SOL    HW1 1641   1.643   3.042   1.138
  562SOL    HW2 1642   1.552   2.963   1.028
  563SOL     OW 1643   0.915   1.951   1.402
  563SOL    HW1 1644   0.940   1.931   1.307
  563SOL    HW2 1645   0.987   2.007   1.444
  564SOL     OW 1646   0.980   2.978   1.719
  564SOL    HW1 1647   0.881   2.984   1.729
  564SOL    HW2 1648   1.003   2.898   1.663
  565SOL     OW 1649   0.705   2.912   0.368
  565SOL    HW1 1650   0.691   2.919   0.467
  565SOL    HW2 1651   0.789   2.861   0.350
  566SOL     OW 1652   0.410   2.675   1.251
  566SOL    HW1 1653   0.496   2.687   1.301
  566SOL    HW2 1654   0.368   2.588   1.278
  567SOL     OW 1655   0.064   3.426   1.331
  567SOL    HW1 1656   0.018   3.508   1.297
  567SOL    HW2 1657   0.162   3.445   1.340
  568SOL     OW 1658   0.367   2.962   0.501
  568SOL    HW1 1659   0.360   3.045   0.445
  568SOL    HW2 1660   0.371   2.882   0.441
  569SOL     OW 1661   0.566   2.399   0.865
  569SOL    HW1 1662   0.578   2.465   0.791
  569SOL    HW2 1663   0.612   2.433   0.948
  570SOL     OW 1664   1.252   3.210   0.388
  570SOL    HW1 1665   1.302   3.287   0.428
  570SOL    HW2 1666   1.157   3.212   0.420
  571SOL     OW 1667   1.272   3.307   1.142
  571SOL    HW1 1668   1.319   3.320   1.229
  571SOL    HW2 1669   1.206   3.233   1.151
  572SOL     OW 1670   1.582   2.501   0.472
  572SOL    HW1 1671   1.551   2.562   0.545
  572SOL    HW2 1672   1.632   2.553   0.403
  573SOL     OW 1673   0.354   3.372   1.329
  573SOL    HW1 1674   0.333   3.328   1.242
  573SOL    HW2 1675   0.451   3.398   1.332
  574SOL     OW 1676   0.402   2.613   1.598
  574SOL    HW1 1677   0.470   2.668   1.551
  574SOL    HW2 1678   0.442   2.525   1.625
  575SOL     OW 1679   1.587   2.641   1.670
  575SOL    HW1 1680   1.495   2.679   1.665
  575SOL    HW2 1681   1.647   2.688   1.605
  576SOL     OW 1682   1.013   1.967   1.770
  576SOL    HW1 1683   1.019   2.052   1.718
  576SOL    HW2 1684   1.045   1.891   1.713
  577SOL     OW 1685   0.504   1.912   1.740
  577SOL    HW1 1686   0.462   1.855   1.670
  577SOL    HW2 1687   0.438   1.981   1.772
  578SOL     OW 1688   0.573   2.732   1.029
  578SOL    HW1 1689   0.617   2.821   1.020
  578SOL    HW2 1690   0.510   2.732   1.106
  579SOL     OW 1691   1.360   2.724   1.045
  579SOL    HW1 1692   1.285   2.724   0.979
  579SOL    HW2 1693   1.397   2.632   1.054
  580SOL     OW 1694   1.209   2.387   0.275
  580SOL    HW1 1695   1.222   2.303   0.329
  580SOL    HW2 1696   1.180   2.461   0.335
  581SOL     OW 1697   0.307   2.075   1.231
  581SOL    HW1 1698   0.284   2.112   1.321
  581SOL    HW2 1699   0.277   1.980   1.225
  582SOL     OW 1700   0.037   3.172   1.282
  582SOL    HW1 1701   0.090   3.123   1.350
  582SOL    HW2 1702   0.059   3.270   1.287
  583SOL     OW 1703   0.732   2.496   1.064
  583SOL    HW1 1704   0.791   2.470   0.988
  583SOL    HW2 1705   0.704   2.592   1.053
  584SOL     OW 1706   1.728   2.797   1.854
  584SOL    HW1 1707   1.682   2.790   1.765
  584SOL    HW2 1708   1.666   2.841   1.920
  585SOL     OW 1709   0.307   1.925   0.618
  585SOL    HW1 1710   0.296   2.019   0.651
  585SOL    HW2 1711   0.302   1.862   0.695
  586SOL     OW 1712   1.622   2.229   0.374
  586SOL    HW1 1713   1.624   2.153   0.438
  586SOL    HW2 1714   1.574   2.306   0.414
  587SOL     OW 1715   1.023   2.628   0.966
  587SOL    HW1 1716   1.038   2.649   1.062
  587SOL    HW2 1717   0.993   2.533   0.957
  588SOL     OW 1718   0.980   3.435   1.700
  588SOL    HW1 1719   0.960   3.479   1.612
  588SOL    HW2 1720   1.019   3.344   1.684
  589SOL     OW 1721   1.859   3.380   1.605
  589SOL    HW1 1722   1.873   3.407   1.510
  589SOL    HW2 1723   1.942   3.402   1.658
  590SOL     OW 1724   0.350   2.760   1.804
  590SOL    HW1 1725   0.426   2.804   1.852
  590SOL    HW2 1726   0.385   2.713   1.722
  591SOL     OW 1727   1.540   2.136   0.125
  591SOL    HW1 1728   1.479   2.061   0.148
  591SOL    HW2 1729   1.562   2.188   0.208
  592SOL     OW 1730   1.303   2.700   0.042
  592SOL    HW1 1731   1.337   2.607   0.057
  592SOL    HW2 1732   1.321   2.727  -0.053
  593SOL     OW 1733   1.068   3.195   0.849
  593SOL    HW1 1734   1.075   3.111   0.794
  593SOL    HW2 1735   1.130   3.264   0.813
  594SOL     OW 1736   0.319   2.672   0.949
  594SOL    HW1 1737   0.412   2.708   0.954
  594SOL    HW2 1738   0.313   2.587   1.001
  595SOL     OW 1739   0.339   2.371   1.006
  595SOL    HW1 1740   0.287   2.288   0.989
  595SOL    HW2 1741   0.416   2.376   0.942
  596SOL     OW 1742   1.138   2.242   1.678
  596SOL    HW1 1743   1.093   2.305   1.742
  596SOL    HW2 1744   1.231   2.273   1.661
  597SOL     OW 1745   1.160   2.069   1.477
  597SOL    HW1 1746   1.160   2.133   1.554
  597SOL    HW2 1747   1.188   2.117   1.394
  598SOL     OW 1748   0.008   3.188   0.200
  598SOL    HW1 1749  -0.085   3.209   0.169
  598SOL    HW2 1750   0.018   3.089   0.213
  599SOL     OW 1751   0.088   3.663   0.927
  599SOL    HW1 1752   0.046   3.577   0.900
  599SOL    HW2 1753   0.182   3.666   0.893
  600SOL     OW 1754   0.504   3.430   0.910
  600SOL    HW1 1755   0.570   3.504   0.919
  600SOL    HW2 1756   0.548   3.351   0.868
  601SOL     OW 1757   1.002   2.658   1.238
  601SOL    HW1 1758   1.043   2.626   1.324
  601SOL    HW2 1759   0.906   2.631   1.235
  602SOL     OW 1760   0.040   2.406   1.114
  602SOL    HW1 1761   0.125   2.373   1.073
  602SOL    HW2 1762   0.053   2.421   1.212
  603SOL     OW 1763   0.189   2.382   1.722
  603SOL    HW1 1764   0.248   2.342   1.652
  603SOL    HW2 1765   0.131   2.453   1.681
  604SOL     OW 1766   1.369   2.812   1.660
  604SOL    HW1 1767   1.408   2.901   1.680
  604SOL    HW2 1768   1.379   2.792   1.563
  605SOL     OW 1769   0.815   2.434   0.325
  605SOL    HW1 1770   0.822   2.345   0.279
  605SOL    HW2 1771   0.721   2.468   0.317
  606SOL     OW 1772   1.657   2.466   1.206
  606SOL    HW1 1773   1.619   2.397   1.268
  606SOL    HW2 1774   1.739   2.430   1.162
  607SOL     OW 1775   0.252   3.426   1.744
  607SOL    HW1 1776   0.222   3.483   1.820
  607SOL    HW2 1777   0.245   3.329   1.770
  608SOL     OW 1778   0.671   2.326   1.269
  608SOL    HW1 1779   0.637   2.237   1.239
  608SOL    HW2 1780   0.697   2.380   1.189
  609SOL     OW 1781   0.930   3.540   1.465
  609SOL    HW1 1782   0.906   3.522   1.370
  609SOL    HW2 1783   0.960   3.634   1.475
  610SOL     OW 1784   0.473   2.362   0.191
  610SOL    HW1 1785   0.534   2.442   0.195
  610SOL    HW2 1786   0.378   2.393   0.198
  611SOL     OW 1787   0.159   2.999   1.466
  611SOL    HW1 1788   0.181   2.938   1.542
  611SOL    HW2 1789   0.169   2.950   1.380
  612SOL     OW 1790   1.347   2.921   1.234
  612SOL    HW1 1791   1.371   2.858   1.160
  612SOL    HW2 1792   1.257   2.961   1.216
  613SOL     OW 1793   1.302   2.717   0.309
  613SOL    HW1 1794   1.216   2.686   0.351
  613SOL    HW2 1795   1.298   2.703   0.210
  614SOL     OW 1796   1.759   3.609   1.154
  614SOL    HW1 1797   1.820   3.639   1.081
  614SOL    HW2 1798   1.721   3.520   1.132
  615SOL     OW 1799   1.252   3.593   1.128
  615SOL    HW1 1800   1.336   3.598   1.074
  615SOL    HW2 1801   1.229   3.497   1.146
  616SOL     OW 1802   0.083   3.120   1.022
  616SOL    HW1 1803   0.078   3.119   1.122
  616SOL    HW2 1804   0.000   3.079   0.984
  617SOL     OW 1805   0.688   3.524   1.716
  617SOL    HW1 1806   0.632   3.605   1.725
  617SOL    HW2 1807   0.740   3.528   1.630
  618SOL     OW 1808   0.903   1.948   0.133
  618SOL    HW1 1809   0.954   1.949   0.047
  618SOL    HW2 1810   0.959   1.906   0.204
  619SOL     OW 1811   1.726   1.997   0.523
  619SOL    HW1 1812   1.799   1.980   0.456
  619SOL    HW2 1813   1.695   1.910   0.561
  620SOL     OW 1814   1.388   3.435   0.477
  620SOL    HW1 1815   1.455   3.447   0.403
  620SOL    HW2 1816   1.348   3.524   0.500
  621SOL     OW 1817   0.130   3.656   1.851
  621SOL    HW1 1818   0.089   3.582   1.904
  621SOL    HW2 1819   0.194   3.707   1.909
  622SOL     OW 1820   1.280   2.789   0.672
  622SOL    HW1 1821   1.340   2.708   0.674
  622SOL    HW2 1822   1.320   2.858   0.612
  623SOL     OW 1823   0.830   3.135   1.422
  623SOL    HW1 1824   0.825   3.168   1.517
  623SOL    HW2 1825   0.744   3.154   1.376
  624SOL     OW 1826   0.672   3.478   0.154
  624SOL    HW1 1827   0.681   3.488   0.055
  624SOL    HW2 1828   0.632   3.389   0.175
  625SOL     OW 1829   1.650   3.582   1.394
  625SOL    HW1 1830   1.703   3.592   1.310
  625SOL    HW2 1831   1.623   3.672   1.428
  626SOL     OW 1832   1.841   2.037   0.963
  626SOL    HW1 1833   1.880   1.952   0.927
  626SOL    HW2 1834   1.743   2.039   0.944
  627SOL     OW 1835   0.263   2.188   0.720
  627SOL    HW1 1836   0.184   2.239   0.686
  627SOL    HW2 1837   0.254   2.173   0.818
  628SOL     OW 1838   1.194   3.474   0.031
  628SOL    HW1 1839   1.200   3.381   0.068
  628SOL    HW2 1840   1.135   3.474  -0.049
  629SOL     OW 1841   0.822   2.864   1.372
  629SOL    HW1 1842   0.862   2.863   1.280
  629SOL    HW2 1843   0.832   2.956   1.412
  630SOL     OW 1844   0.916   2.772   0.291
  630SOL    HW1 1845   0.979   2.810   0.223
  630SOL    HW2 1846   0.956   2.689   0.330
  631SOL     OW 1847   1.504   3.469   0.044
  631SOL    HW1 1848   1.412   3.506   0.051
  631SOL    HW2 1849   1.542   3.489  -0.046
  632SOL     OW 1850   0.372   3.150   1.490
  632SOL    HW1 1851   0.359   3.243   1.456
  632SOL    HW2 1852   0.288   3.098   1.477
  633SOL     OW 1853   1.614   3.154   1.289
  633SOL    HW1 1854   1.674   3.157   1.369
  633SOL    HW2 1855   1.539   3.218   1.302
  634SOL     OW 1856   1.039   2.960   0.696
  634SOL    HW1 1857   0.969   2.913   0.750
  634SOL    HW2 1858   1.098   2.892   0.653
  635SOL     OW 1859   1.014   2.098   0.971
  635SOL    HW1 1860   1.006   2.062   0.878
  635SOL    HW2 1861   1.012   2.022   1.036
  636SOL     OW 1862   0.590   3.349   0.491
  636SOL    HW1 1863   0.632   3.291   0.421
  636SOL    HW2 1864   0.546   3.428   0.447
  637SOL     OW 1865   0.255   3.210   0.290
  637SOL    HW1 1866   0.159   3.211   0.263
  637SOL    HW2 1867   0.267   3.263   0.374
  638SOL     OW 1868   0.105   2.875   1.726
  638SOL    HW1 1869   0.028   2.842   1.780
  638SOL    HW2 1870   0.190   2.845   1.768
  639SOL     OW 1871   0.672   2.065   1.489
  639SOL    HW1 1872   0.762   2.049   1.449
  639SOL    HW2 1873   0.680   2.070   1.588
  640SOL     OW 1874   0.075   2.207   0.033
  640SOL    HW1 1875  -0.017   2.179   0.004
  640SOL    HW2 1876   0.106   2.284  -0.023
  641SOL     OW 1877   1.440   2.718   1.398
  641SOL    HW1 1878   1.383   2.770   1.335
  641SOL    HW2 1879   1.536   2.730   1.374
  642SOL     OW 1880   0.072   2.028   0.318
  642SOL    HW1 1881   0.055   2.111   0.264
  642SOL    HW2 1882   0.162   1.991   0.296
  643SOL     OW 1883   1.183   3.197   0.119
  643SOL    HW1 1884   1.084   3.186   0.121
  643SOL    HW2 1885   1.217   3.212   0.212
  644SOL     OW 1886   0.613   2.704   1.431
  644SOL    HW1 1887   0.669   2.785   1.414
  644SOL    HW2 1888   0.672   2.624   1.434
  645SOL     OW 1889   1.493   3.629   0.959
  645SOL    HW1 1890   1.526   3.693   0.890
  645SOL    HW2 1891   1.559   3.623   1.034
  646SOL     OW 1892   0.716   2.427   1.708
  646SOL    HW1 1893   0.735   2.492   1.782
  646SOL    HW2 1894   0.776   2.347   1.717
  647SOL     OW 1895   1.450   3.082   1.633
  647SOL    HW1 1896   1.441   3.072   1.732
  647SOL    HW2 1897   1.546   3.075   1.607
  648SOL     OW 1898   0.390   3.603   1.560
  648SOL    HW1 1899   0.299   3.644   1.558
  648SOL    HW2 1900   0.383   3.509   1.592
  649SOL     OW 1901   1.674   2.745   1.254
  649SOL    HW1 1902   1.647   2.656   1.217
  649SOL    HW2 1903   1.675   2.813   1.181
  650SOL     OW 1904   1.225   2.187   0.449
  650SOL    HW1 1905   1.290   2.113   0.438
  650SOL    HW2 1906   1.245   2.237   0.533
  651SOL     OW 1907   0.594   2.607   0.652
  651SOL    HW1 1908   0.644   2.692   0.633
  651SOL    HW2 1909   0.506   2.609   0.604
  652SOL     OW 1910   1.777   2.204   1.642
  652SOL    HW1 1911   1.760   2.235   1.548
  652SOL    HW2 1912   1.693   2.167   1.680
  653SOL     OW 1913   1.730   2.796   1.517
  653SOL    HW1 1914   1.768   2.887   1.532
  653SOL    HW2 1915   1.722   2.779   1.418
  654SOL     OW 1916   0.859   3.236   0.016
  654SOL    HW1 1917   0.813   3.251   0.104
  654SOL    HW2 1918   0.903   3.321  -0.014
  655SOL     OW 1919   0.661   3.652   0.953
  655SOL    HW1 1920   0.615   3.740   0.940
  655SOL    HW2 1921   0.760   3.664   0.946
  656SOL     OW 1922   0.859   2.818   0.861
  656SOL    HW1 1923   0.913   2.749   0.909
  656SOL    HW2 1924   0.827   2.887   0.927
  657SOL     OW 1925   1.083   2.846   0.087
  657SOL    HW1 1926   1.060   2.899   0.005
  657SOL    HW2 1927   1.164   2.790   0.068
  658SOL     OW 1928   1.861   3.431   0.851
  658SOL    HW1 1929   1.790   3.419   0.781
  658SOL    HW2 1930   1.862   3.352   0.911
  659SOL     OW 1931   0.221   3.176   1.844
  659SOL    HW1 1932   0.156   3.103   1.823
  659SOL    HW2 1933   0.225   3.190   1.942
  660SOL     OW 1934   0.079   3.102   0.653
  660SOL    HW1 1935   0.078   3.055   0.741
  660SOL    HW2 1936   0.161   3.074   0.602
  661SOL     OW 1937   0.672   3.253   1.624
  661SOL    HW1 1938   0.594   3.203   1.662
  661SOL    HW2 1939   0.669   3.348   1.655
  662SOL     OW 1940   0.428   2.286   0.520
  662SOL    HW1 1941   0.458   2.214   0.458
  662SOL    HW2 1942   0.389   2.246   0.603
  663SOL     OW 1943   1.705   3.349   1.104
  663SOL    HW1 1944   1.612   3.324   1.077
  663SOL    HW2 1945   1.731   3.299   1.186
  664SOL     OW 1946   0.317   2.409   1.280
  664SOL    HW1 1947   0.355   2.350   1.352
  664SOL    HW2 1948   0.357   2.383   1.192
  665SOL     OW 1949   0.812   3.448   0.687
  665SOL    HW1 1950   0.844   3.458   0.593
  665SOL    HW2 1951   0.733   3.386   0.689
  666SOL     OW 1952   1.001   1.896   1.154
  666SOL    HW1 1953   0.938   1.824   1.123
  666SOL    HW2 1954   1.094   1.860   1.154
  667SOL     OW 1955   0.770   3.192   0.301
  667SOL    HW1 1956   0.724   3.105   0.318
  667SOL    HW2 1957   0.861   3.189   0.342
  668SOL     OW 1958   0.618   3.429   1.284
  668SOL    HW1 1959   0.613   3.511   1.341
  668SOL    HW2 1960   0.707   3.426   1.239
  669SOL     OW 1961   1.352   1.914   0.168
  669SOL    HW1 1962   1.387   1.873   0.084
  669SOL    HW2 1963   1.262   1.876   0.188
  670SOL     OW 1964   1.300   2.315   0.691
  670SOL    HW1 1965   1.241   2.395   0.695
  670SOL    HW2 1966   1.315   2.280   0.784
  671SOL     OW 1967   1.593   2.083   0.882
  671SOL    HW1 1968   1.509   2.082   0.936
  671SOL    HW2 1969   1.595   2.166   0.826
  672SOL     OW 1970   0.039   2.939   0.300
  672SOL    HW1 1971   0.138   2.928   0.291
  672SOL    HW2 1972  -0.001   2.853   0.332
  673SOL     OW 1973   0.875   3.508   0.337
  673SOL    HW1 1974   0.798   3.473   0.283
  673SOL    HW2 1975   0.843   3.579   0.399
  674SOL     OW 1976   0.230   2.490   1.975
  674SOL    HW1 1977   0.137   2.488   2.012
  674SOL    HW2 1978   0.231   2.451   1.883
  675SOL     OW 1979   0.225   2.137   2.858
  675SOL    HW1 1980   0.260   2.120   2.950
  675SOL    HW2 1981   0.137   2.092   2.846
  676SOL     OW 1982   0.019   2.230   2.509
  676SOL    HW1 1983  -0.063   2.273   2.548
  676SOL    HW2 1984  -0.009   2.157   2.446
  677SOL     OW 1985   0.569   3.137   3.027
  677SOL    HW1 1986   0.476   3.130   2.990
  677SOL    HW2 1987   0.580   3.226   3.071
  678SOL     OW 1988   1.555   3.373   2.565
  678SOL    HW1 1989   1.498   3.357   2.646
  678SOL    HW2 1990   1.496   3.383   2.485
  679SOL     OW 1991   1.135   2.565   2.579
  679SOL    HW1 1992   1.192   2.643   2.554
  679SOL    HW2 1993   1.075   2.591   2.655
  680SOL     OW 1994   0.768   3.006   2.885
  680SOL    HW1 1995   0.690   3.023   2.945
  680SOL    HW2 1996   0.802   3.093   2.849
  681SOL     OW 1997   0.850   2.660   3.685
  681SOL    HW1 1998   0.846   2.736   3.750
  681SOL    HW2 1999   0.872   2.696   3.594
  682SOL     OW 2000   0.685   2.874   2.527
  682SOL    HW1 2001   0.754   2.858   2.597
  682SOL    HW2 2002   0.612   2.931   2.565
  683SOL     OW 2003   0.686   3.023   3.665
  683SOL    HW1 2004   0.746   3.102   3.679
  683SOL    HW2 2005   0.600   3.054   3.624
  684SOL     OW 2006   0.335   3.297   2.923
  684SOL    HW1 2007   0.257   3.266   2.870
  684SOL    HW2 2008   0.393   3.355   2.866
  685SOL     OW 2009   1.460   3.367   3.201
  685SOL    HW1 2010   1.484   3.461   3.227
  685SOL    HW2 2011   1.444   3.313   3.283
  686SOL     OW 2012   0.438   2.254   3.361
  686SOL    HW1 2013   0.520   2.198   3.370
  686SOL    HW2 2014   0.357   2.196   3.365
  687SOL     OW 2015   0.231   3.575   2.345
  687SOL    HW1 2016   0.265   3.652   2.399
  687SOL    HW2 2017   0.275   3.575   2.255
  688SOL     OW 2018   1.127   3.203   3.552
  688SOL    HW1 2019   1.174   3.203   3.640
  688SOL    HW2 2020   1.079   3.116   3.541
  689SOL     OW 2021   0.230   3.296   2.400
  689SOL    HW1 2022   0.204   3.392   2.400
  689SOL    HW2 2023   0.159   3.242   2.445
  690SOL     OW 2024   0.240   2.953   2.748
  690SOL    HW1 2025   0.254   2.869   2.800
  690SOL    HW2 2026   0.185   3.017   2.803
  691SOL     OW 2027   0.620   3.648   3.301
  691SOL    HW1 2028   0.528   3.631   3.336
  691SOL    HW2 2029   0.648   3.740   3.327
  692SOL     OW 2030   0.606   2.826   1.985
  692SOL    HW1 2031   0.613   2.910   1.931
  692SOL    HW2 2032   0.652   2.839   2.073
  693SOL     OW 2033   1.594   1.976   3.342
  693SOL    HW1 2034   1.576   2.043   3.270
  693SOL    HW2 2035   1.591   2.022   3.431
  694SOL     OW 2036   0.122   2.505   2.425
  694SOL    HW1 2037   0.077   2.417   2.442
  694SOL    HW2 2038   0.121   2.559   2.509
  695SOL     OW 2039   1.842   3.629   2.221
  695SOL    HW1 2040   1.896   3.600   2.301
  695SOL    HW2 2041   1.872   3.719   2.192
  696SOL     OW 2042   0.027   3.458   1.979
  696SOL    HW1 2043   0.008   3.362   2.000
  696SOL    HW2 2044  -0.006   3.516   2.054
  697SOL     OW 2045   1.689   2.784   2.474
  697SOL    HW1 2046   1.784   2.755   2.482
  697SOL    HW2 2047   1.681   2.849   2.399
  698SOL     OW 2048   1.641   2.970   2.294
  698SOL    HW1 2049   1.727   2.972   2.242
  698SOL    HW2 2050   1.655   3.017   2.382
  699SOL     OW 2051   0.113   2.599   3.459
  699SOL    HW1 2052   0.201   2.586   3.504
  699SOL    HW2 2053   0.100   2.696   3.437
  700SOL     OW 2054   0.613   3.227   2.588
  700SOL    HW1 2055   0.564   3.140   2.597
  700SOL    HW2 2056   0.590   3.270   2.501
  701SOL     OW 2057   1.293   3.090   3.285
  701SOL    HW1 2058   1.330   3.017   3.227
  701SOL    HW2 2059   1.345   3.095   3.370
  702SOL     OW 2060   0.809   1.866   2.364
  702SOL    HW1 2061   0.849   1.957   2.355
  702SOL    HW2 2062   0.709   1.874   2.370
  703SOL     OW 2063   0.197   2.838   3.126
  703SOL    HW1 2064   0.286   2.793   3.112
  703SOL    HW2 2065   0.124   2.773   3.107
  704SOL     OW 2066   1.525   2.861   2.052
  704SOL    HW1 2067   1.462   2.785   2.065
  704SOL    HW2 2068   1.573   2.879   2.138
  705SOL     OW 2069   1.187   3.654   3.478
  705SOL    HW1 2070   1.211   3.714   3.402
  705SOL    HW2 2071   1.194   3.559   3.448
  706SOL     OW 2072   0.317   2.113   3.663
  706SOL    HW1 2073   0.388   2.184   3.669
  706SOL    HW2 2074   0.229   2.152   3.691
  707SOL     OW 2075   1.466   3.279   2.815
  707SOL    HW1 2076   1.407   3.285   2.895
  707SOL    HW2 2077   1.451   3.191   2.769
  708SOL     OW 2078   1.667   3.576   2.434
  708SOL    HW1 2079   1.626   3.553   2.346
  708SOL    HW2 2080   1.649   3.502   2.499
  709SOL     OW 2081   0.598   2.591   2.132
  709SOL    HW1 2082   0.622   2.660   2.064
  709SOL    HW2 2083   0.520   2.624   2.186
  710SOL     OW 2084   1.281   2.207   2.806
  710SOL    HW1 2085   1.195   2.157   2.793
  710SOL    HW2 2086   1.343   2.153   2.862
  711SOL     OW 2087   1.576   3.524   2.169
  711SOL    HW1 2088   1.665   3.570   2.172
  711SOL    HW2 2089   1.555   3.500   2.074
  712SOL     OW 2090   0.807   2.467   3.327
  712SOL    HW1 2091   0.760   2.464   3.416
  712SOL    HW2 2092   0.756   2.412   3.261
  713SOL     OW 2093   1.394   2.331   3.536
  713SOL    HW1 2094   1.374   2.374   3.624
  713SOL    HW2 2095   1.472   2.269   3.545
  714SOL     OW 2096   0.973   2.752   3.434
  714SOL    HW1 2097   1.019   2.668   3.405
  714SOL    HW2 2098   0.917   2.786   3.359
  715SOL     OW 2099   0.991   2.272   3.104
  715SOL    HW1 2100   0.914   2.306   3.158
  715SOL    HW2 2101   0.957   2.221   3.025
  716SOL     OW 2102   1.041   2.563   2.291
  716SOL    HW1 2103   1.067   2.559   2.387
  716SOL    HW2 2104   0.956   2.512   2.277
  717SOL     OW 2105   0.076   2.673   2.651
  717SOL    HW1 2106   0.175   2.661   2.660
  717SOL    HW2 2107   0.052   2.768   2.672
  718SOL     OW 2108   0.130   3.683   3.433
  718SOL    HW1 2109   0.120   3.668   3.532
  718SOL    HW2 2110   0.044   3.719   3.397
  719SOL     OW 2111   0.865   2.210   2.057
  719SOL    HW1 2112   0.924   2.273   2.008
  719SOL    HW2 2113   0.884   2.116   2.028
  720SOL     OW 2114   1.719   2.447   3.693
  720SOL    HW1 2115   1.693   2.536   3.657
  720SOL    HW2 2116   1.717   2.379   3.620
  721SOL     OW 2117   1.362   3.006   2.407
  721SOL    HW1 2118   1.445   2.977   2.359
  721SOL    HW2 2119   1.313   3.073   2.351
  722SOL     OW 2120   0.550   2.058   2.747
  722SOL    HW1 2121   0.545   2.053   2.847
  722SOL    HW2 2122   0.552   2.154   2.718
  723SOL     OW 2123   1.008   3.318   2.339
  723SOL    HW1 2124   0.962   3.390   2.287
  723SOL    HW2 2125   1.004   3.338   2.437
  724SOL     OW 2126   0.351   3.663   2.715
  724SOL    HW1 2127   0.401   3.577   2.721
  724SOL    HW2 2128   0.416   3.740   2.712
  725SOL     OW 2129   1.795   2.928   2.735
  725SOL    HW1 2130   1.733   2.913   2.659
  725SOL    HW2 2131   1.743   2.939   2.820
  726SOL     OW 2132   1.227   3.412   3.368
  726SOL    HW1 2133   1.233   3.335   3.432
  726SOL    HW2 2134   1.175   3.386   3.288
  727SOL     OW 2135   0.321   2.805   2.104
  727SOL    HW1 2136   0.403   2.844   2.062
  727SOL    HW2 2137   0.294   2.723   2.055
  728SOL     OW 2138   1.458   2.597   2.590
  728SOL    HW1 2139   1.453   2.532   2.665
  728SOL    HW2 2140   1.538   2.656   2.603
  729SOL     OW 2141   0.461   3.128   3.589
  729SOL    HW1 2142   0.411   3.129   3.503
  729SOL    HW2 2143   0.398   3.110   3.665
  730SOL     OW 2144   1.111   3.638   2.099
  730SOL    HW1 2145   1.051   3.576   2.149
  730SOL    HW2 2146   1.142   3.594   2.014
  731SOL     OW 2147   0.202   2.147   3.360
  731SOL    HW1 2148   0.122   2.207   3.347
  731SOL    HW2 2149   0.192   2.098   3.446
  732SOL     OW 2150   1.632   3.239   1.943
  732SOL    HW1 2151   1.600   3.333   1.933
  732SOL    HW2 2152   1.556   3.176   1.931
  733SOL     OW 2153   0.464   3.605   2.185
  733SOL    HW1 2154   0.497   3.644   2.271
  733SOL    HW2 2155   0.540   3.598   2.120
  734SOL     OW 2156   1.400   1.969   2.288
  734SOL    HW1 2157   1.376   1.932   2.198
  734SOL    HW2 2158   1.499   1.985   2.292
  735SOL     OW 2159   0.249   3.647   3.103
  735SOL    HW1 2160   0.306   3.582   3.153
  735SOL    HW2 2161   0.233   3.614   3.010
  736SOL     OW 2162   0.940   3.560   2.766
  736SOL    HW1 2163   1.020   3.503   2.787
  736SOL    HW2 2164   0.891   3.520   2.689
  737SOL     OW 2165   0.382   2.562   2.342
  737SOL    HW1 2166   0.427   2.472   2.339
  737SOL    HW2 2167   0.288   2.551   2.375
  738SOL     OW 2168   1.547   2.084   3.591
  738SOL    HW1 2169   1.542   2.121   3.683
  738SOL    HW2 2170   1.475   2.015   3.579
  739SOL     OW 2171   0.614   1.984   1.979
  739SOL    HW1 2172   0.712   1.962   1.986
  739SOL    HW2 2173   0.583   1.967   1.886
  740SOL     OW 2174   0.781   2.126   3.611
  740SOL    HW1 2175   0.848   2.065   3.654
  740SOL    HW2 2176   0.708   2.145   3.676
  741SOL     OW 2177   0.888   3.376   3.057
  741SOL    HW1 2178   0.865   3.351   2.963
  741SOL    HW2 2179   0.949   3.307   3.096
  742SOL     OW 2180   1.351   2.452   3.295
  742SOL    HW1 2181   1.379   2.409   3.380
  742SOL    HW2 2182   1.376   2.548   3.296
  743SOL     OW 2183   0.803   3.264   2.786
  743SOL    HW1 2184   0.893   3.278   2.744
  743SOL    HW2 2185   0.732   3.266   2.715
  744SOL     OW 2186   0.922   2.365   2.761
  744SOL    HW1 2187   0.897   2.356   2.665
  744SOL    HW2 2188   0.970   2.283   2.792
  745SOL     OW 2189   0.539   1.926   2.374
  745SOL    HW1 2190   0.458   1.927   2.432
  745SOL    HW2 2191   0.542   2.009   2.319
  746SOL     OW 2192   1.434   3.050   1.903
  746SOL    HW1 2193   1.466   2.974   1.960
  746SOL    HW2 2194   1.342   3.077   1.933
  747SOL     OW 2195   0.297   1.897   2.033
  747SOL    HW1 2196   0.346   1.981   2.012
  747SOL    HW2 2197   0.359   1.832   2.078
  748SOL     OW 2198   0.935   2.098   2.342
  748SOL    HW1 2199   0.887   2.139   2.264
  748SOL    HW2 2200   1.034   2.096   2.323
  749SOL     OW 2201   1.076   2.545   3.326
  749SOL    HW1 2202   0.996   2.484   3.329
  749SOL    HW2 2203   1.157   2.492   3.302
  750SOL     OW 2204   1.227   3.432   2.655
  750SOL    HW1 2205   1.248   3.506   2.590
  750SOL    HW2 2206   1.295   3.432   2.728
  751SOL     OW 2207   0.459   3.014   2.603
  751SOL    HW1 2208   0.388   2.987   2.668
  751SOL    HW2 2209   0.433   2.986   2.510
  752SOL     OW 2210   1.271   3.659   2.453
  752SOL    HW1 2211   1.315   3.723   2.389
  752SOL    HW2 2212   1.221   3.711   2.523
  753SOL     OW 2213   1.032   2.411   1.878
  753SOL    HW1 2214   0.991   2.493   1.839
  753SOL    HW2 2215   1.096   2.437   1.951
  754SOL     OW 2216   0.078   2.418   3.248
  754SOL    HW1 2217   0.170   2.417   3.207
  754SOL    HW2 2218   0.072   2.492   3.315
  755SOL     OW 2219   0.561   2.084   3.009
  755SOL    HW1 2220   0.599   2.000   3.046
  755SOL    HW2 2221   0.473   2.103   3.053
  756SOL     OW 2222   0.866   2.316   2.504
  756SOL    HW1 2223   0.834   2.388   2.442
  756SOL    HW2 2224   0.890   2.235   2.451
  757SOL     OW 2225   1.017   1.901   2.615
  757SOL    HW1 2226   0.945   1.906   2.546
  757SOL    HW2 2227   0.993   1.832   2.684
  758SOL     OW 2228   1.429   3.035   2.729
  758SOL    HW1 2229   1.374   2.951   2.722
  758SOL    HW2 2230   1.455   3.064   2.637
  759SOL     OW 2231   1.466   2.452   2.854
  759SOL    HW1 2232   1.436   2.357   2.861
  759SOL    HW2 2233   1.539   2.468   2.920
  760SOL     OW 2234   1.857   2.695   2.239
  760SOL    HW1 2235   1.899   2.631   2.303
  760SOL    HW2 2236   1.819   2.644   2.161
  761SOL     OW 2237   0.488   3.247   2.036
  761SOL    HW1 2238   0.401   3.232   2.083
  761SOL    HW2 2239   0.471   3.273   1.941
  762SOL     OW 2240   1.664   3.142   2.519
  762SOL    HW1 2241   1.763   3.150   2.533
  762SOL    HW2 2242   1.619   3.226   2.550
  763SOL     OW 2243   1.390   2.437   1.940
  763SOL    HW1 2244   1.336   2.416   2.021
  763SOL    HW2 2245   1.481   2.396   1.949
  764SOL     OW 2246   0.527   2.118   2.190
  764SOL    HW1 2247   0.554   2.059   2.115
  764SOL    HW2 2248   0.527   2.213   2.159
  765SOL     OW 2249   1.754   3.085   3.450
  765SOL    HW1 2250   1.845   3.046   3.437
  765SOL    HW2 2251   1.762   3.181   3.474
  766SOL     OW 2252   1.064   3.209   3.202
  766SOL    HW1 2253   0.984   3.186   3.257
  766SOL    HW2 2254   1.147   3.183   3.251
  767SOL     OW 2255   1.592   3.491   3.487
  767SOL    HW1 2256   1.619   3.525   3.397
  767SOL    HW2 2257   1.671   3.453   3.533
  768SOL     OW 2258   1.111   3.057   2.962
  768SOL    HW1 2259   1.071   3.101   3.043
  768SOL    HW2 2260   1.070   3.094   2.879
  769SOL     OW 2261   1.638   2.961   2.941
  769SOL    HW1 2262   1.643   3.042   3.000
  769SOL    HW2 2263   1.552   2.963   2.890
  770SOL     OW 2264   0.915   1.951   3.264
  770SOL    HW1 2265   0.940   1.931   3.169
  770SOL    HW2 2266   0.987   2.007   3.306
  771SOL     OW 2267   0.980   2.978   3.581
  771SOL    HW1 2268   0.881   2.984   3.591
  771SOL    HW2 2269   1.003   2.898   3.525
  772SOL     OW 2270   0.705   2.912   2.230
  772SOL    HW1 2271   0.691   2.919   2.329
  772SOL    HW2 2272   0.789   2.861   2.212
  773SOL     OW 2273   0.410   2.675   3.113
  773SOL    HW1 2274   0.496   2.687   3.163
  773SOL    HW2 2275   0.368   2.588   3.140
  774SOL     OW 2276   1.274   2.248   3.124
  774SOL    HW1 2277   1.295   2.322   3.188
  774SOL    HW2 2278   1.185   2.265   3.081
  775SOL     OW 2279   0.064   3.426   3.193
  775SOL    HW1 2280   0.018   3.508   3.159
  775SOL    HW2 2281   0.162   3.445   3.202
  776SOL     OW 2282   0.367   2.962   2.363
  776SOL    HW1 2283   0.360   3.045   2.307
  776SOL    HW2 2284   0.371   2.882   2.303
  777SOL     OW 2285   0.566   2.399   2.727
  777SOL    HW1 2286   0.578   2.465   2.653
  777SOL    HW2 2287   0.612   2.433   2.810
  778SOL     OW 2288   1.252   3.210   2.250
  778SOL    HW1 2289   1.302   3.287   2.290
  778SOL    HW2 2290   1.157   3.212   2.282
  779SOL     OW 2291   1.272   3.307   3.004
  779SOL    HW1 2292   1.319   3.320   3.091
  779SOL    HW2 2293   1.206   3.233   3.013
  780SOL     OW 2294   1.582   2.501   2.334
  780SOL    HW1 2295   1.551   2.562   2.407
  780SOL    HW2 2296   1.632   2.553   2.265
  781SOL     OW 2297   0.354   3.372   3.191
  781SOL    HW1 2298   0.333   3.328   3.104
  781SOL    HW2 2299   0.451   3.398   3.194
  782SOL     OW 2300   0.402   2.613   3.460
  782SOL    HW1 2301   0.470   2.668   3.413
  782SOL    HW2 2302   0.442   2.525   3.487
  783SOL     OW 2303   1.587   2.641   3.532
  783SOL    HW1 2304   1.495   2.679   3.527
  783SOL    HW2 2305   1.647   2.688   3.467
  784SOL     OW 2306   1.013   1.967   3.632
  784SOL    HW1 2307   1.019   2.052   3.580
  784SOL    HW2 2308   1.045   1.891   3.575
  785SOL     OW 2309   0.504   1.912   3.602
  785SOL    HW1 2310   0.462   1.855   3.532
  785SOL    HW2 2311   0.438   1.981   3.634
  786SOL     OW 2312   0.573   2.732   2.891
  786SOL    HW1 2313   0.617   2.821   2.882
  786SOL    HW2 2314   0.510   2.732   2.968
  787SOL     OW 2315   1.360   2.724   2.907
  787SOL    HW1 2316   1.285   2.724   2.841
  787SOL    HW2 2317   1.397   2.632   2.916
  788SOL     OW 2318   1.209   2.387   2.137
  788SOL    HW1 2319   1.222   2.303   2.191
  788SOL    HW2 2320   1.180   2.461   2.197
  789SOL     OW 2321   0.307   2.075   3.093
  789SOL    HW1 2322   0.284   2.112   3.183
  789SOL    HW2 2323   0.277   1.980   3.087
  790SOL     OW 2324   0.037   3.172   3.144
  790SOL    HW1 2325   0.090   3.123   3.212
  790SOL    HW2 2326   0.059   3.270   3.149
  791SOL     OW 2327   0.732   2.496   2.926
  791SOL    HW1 2328   0.791   2.470   2.850
  791SOL    HW2 2329   0.704   2.592   2.915
  792SOL     OW 2330   1.728   2.797   3.716
  792SOL    HW1 2331   1.682   2.790   3.627
  792SOL    HW2 2332   1.666   2.841   3.782
  793SOL     OW 2333   0.307   1.925   2.480
  793SOL    HW1 2334   0.296   2.019   2.513
  793SOL    HW2 2335   0.302   1.862   2.557
  794SOL     OW 2336   1.622   2.229   2.236
  794SOL    HW1 2337   1.624   2.153   2.300
  794SOL    HW2 2338   1.574   2.306   2.276
  795SOL     OW 2339   1.023   2.628   2.828
  795SOL    HW1 2340   1.038   2.649   2.924
  795SOL    HW2 2341   0.993   2.533   2.819
  796SOL     OW 2342   0.980   3.435   3.562
  796SOL    HW1 2343   0.960   3.479   3.474
  796SOL    HW2 2344   1.019   3.344   3.546
  797SOL     OW 2345   1.859   3.380   3.467
  797SOL    HW1 2346   1.873   3.407   3.372
  797SOL    HW2 2347   1.942   3.402   3.520
  798SOL     OW 2348   0.350   2.760   3.666
  798SOL    HW1 2349   0.426   2.804   3.714
  798SOL    HW2 2350   0.385   2.713   3.584
  799SOL     OW 2351   1.303   2.700   1.904
  799SOL    HW1 2352   1.337   2.607   1.919
  799SOL    HW2 2353   1.321   2.727   1.809
  800SOL     OW 2354   1.068   3.195   2.711
  800SOL    HW1 2355   1.075   3.111   2.656
  800SOL    HW2 2356   1.130   3.264   2.675
  801SOL     OW 2357   0.319   2.672   2.811
  801SOL    HW1 2358   0.412   2.708   2.816
  801SOL    HW2 2359   0.313   2.587   2.863
  802SOL     OW 2360   0.339   2.371   2.868
  802SOL    HW1 2361   0.287   2.288   2.851
  802SOL    HW2 2362   0.416   2.376   2.804
  803SOL     OW 2363   1.138   2.242   3.540
  803SOL    HW1 2364   1.093   2.305   3.604
  803SOL    HW2 2365   1.231   2.273   3.523
  804SOL     OW 2366   1.160   2.069   3.339
  804SOL    HW1 2367   1.160   2.133   3.416
  804SOL    HW2 2368   1.188   2.117   3.256
  805SOL     OW 2369   0.008   3.188   2.062
  805SOL    HW1 2370  -0.085   3.209   2.031
  805SOL    HW2 2371   0.018   3.089   2.075
  806SOL     OW 2372   0.088   3.663   2.789
  806SOL    HW1 2373   0.046   3.577   2.762
  806SOL    HW2 2374   0.182   3.666   2.755
  807SOL     OW 2375   0.504   3.430   2.772
  807SOL    HW1 2376   0.570   3.504   2.781
  807SOL    HW2 2377   0.548   3.351   2.730
  808SOL     OW 2378   1.002   2.658   3.100
  808SOL    HW1 2379   1.043   2.626   3.186
  808SOL    HW2 2380   0.906   2.631   3.097
  809SOL     OW 2381   0.040   2.406   2.976
  809SOL    HW1 2382   0.125   2.373   2.935
  809SOL    HW2 2383   0.053   2.421   3.074
  810SOL     OW 2384   0.189   2.382   3.584
  810SOL    HW1 2385   0.248   2.342   3.514
  810SOL    HW2 2386   0.131   2.453   3.543
  811SOL     OW 2387   1.369   2.812   3.522
  811SOL    HW1 2388   1.408   2.901   3.542
  811SOL    HW2 2389   1.379   2.792   3.425
  812SOL     OW 2390   0.815   2.434   2.187
  812SOL    HW1 2391   0.822   2.345   2.141
  812SOL    HW2 2392   0.721   2.468   2.179
  813SOL     OW 2393   1.657   2.466   3.068
  813SOL    HW1 2394   1.619   2.397   3.130
  813SOL    HW2 2395   1.739   2.430   3.024
  814SOL     OW 2396   0.252   3.426   3.606
  814SOL    HW1 2397   0.222   3.483   3.682
  814SOL    HW2 2398   0.245   3.329   3.632
  815SOL     OW 2399   0.671   2.326   3.131
  815SOL    HW1 2400   0.637   2.237   3.101
  815SOL    HW2 2401   0.697   2.380   3.051
  816SOL     OW 2402   0.930   3.540   3.327
  816SOL    HW1 2403   0.906   3.522   3.232
  816SOL    HW2 2404   0.960   3.634   3.337
  817SOL     OW 2405   0.473   2.362   2.053
  817SOL    HW1 2406   0.534   2.442   2.057
  817SOL    HW2 2407   0.378   2.393   2.060
  818SOL     OW 2408   0.159   2.999   3.328
  818SOL    HW1 2409   0.181   2.938   3.404
  818SOL    HW2 2410   0.169   2.950   3.242
  819SOL     OW 2411   1.347   2.921   3.096
  819SOL    HW1 2412   1.371   2.858   3.022
  819SOL    HW2 2413   1.257   2.961   3.078
  820SOL     OW 2414   1.302   2.717   2.171
  820SOL    HW1 2415   1.216   2.686   2.213
  820SOL    HW2 2416   1.298   2.703   2.072
  821SOL     OW 2417   1.759   3.609   3.016
  821SOL    HW1 2418   1.820   3.639   2.943
  821SOL    HW2 2419   1.721   3.520   2.994
  822SOL     OW 2420   1.252   3.593   2.990
  822SOL    HW1 2421   1.336   3.598   2.936
  822SOL    HW2 2422   1.229   3.497   3.008
  823SOL     OW 2423   0.083   3.120   2.884
  823SOL    HW1 2424   0.078   3.119   2.984
  823SOL    HW2 2425   0.000   3.079   2.846
  824SOL     OW 2426   0.688   3.524   3.578
  824SOL    HW1 2427   0.632   3.605   3.587
  824SOL    HW2 2428   0.740   3.528   3.492
  825SOL     OW 2429   1.726   1.997   2.385
  825SOL    HW1 2430   1.799   1.980   2.318
  825SOL    HW2 2431   1.695   1.910   2.423
  826SOL     OW 2432   1.388   3.435   2.339
  826SOL    HW1 2433   1.455   3.447   2.265
  826SOL    HW2 2434   1.348   3.524   2.362
  827SOL     OW 2435   0.130   3.656   3.713
  827SOL    HW1 2436   0.089   3.582   3.766
  827SOL    HW2 2437   0.194   3.707   3.771
  828SOL     OW 2438   1.280   2.789   2.534
  828SOL    HW1 2439   1.340   2.708   2.536
  828SOL    HW2 2440   1.320   2.858   2.474
  829SOL     OW 2441   0.830   3.135   3.284
  829SOL    HW1 2442   0.825   3.168   3.379
  829SOL    HW2 2443   0.744   3.154   3.238
  830SOL     OW 2444   0.672   3.478   2.016
  830SOL    HW1 2445   0.681   3.488   1.917
  830SOL    HW2 2446   0.632   3.389   2.037
  831SOL     OW 2447   1.650   3.582   3.256
  831SOL    HW1 2448   1.703   3.592   3.172
  831SOL    HW2 2449   1.623   3.672   3.290
  832SOL     OW 2450   1.841   2.037   2.825
  832SOL    HW1 2451   1.880   1.952   2.789
  832SOL    HW2 2452   1.743   2.039   2.806
  833SOL     OW 2453   0.263   2.188   2.582
  833SOL    HW1 2454   0.184   2.239   2.548
  833SOL    HW2 2455   0.254   2.173   2.680
  834SOL     OW 2456   1.194   3.474   1.893
  834SOL    HW1 2457   1.200   3.381   1.930
  834SOL    HW2 2458   1.135   3.474   1.813
  835SOL     OW 2459   0.822   2.864   3.234
  835SOL    HW1 2460   0.862   2.863   3.142
  835SOL    HW2 2461   0.832   2.956   3.274
  836SOL     OW 2462   0.916   2.772   2.153
  836SOL    HW1 2463   0.979   2.810   2.085
  836SOL    HW2 2464   0.956   2.689   2.192
  837SOL     OW 2465   1.504   3.469   1.906
  837SOL    HW1 2466   1.412   3.506   1.913
  837SOL    HW2 2467   1.542   3.489   1.816
  838SOL     OW 2468   0.372   3.150   3.352
  838SOL    HW1 2469   0.359   3.243   3.318
  838SOL    HW2 2470   0.288   3.098   3.339
  839SOL     OW 2471   1.614   3.154   3.151
  839SOL    HW1 2472   1.674   3.157   3.231
  839SOL    HW2 2473   1.539   3.218   3.164
  840SOL     OW 2474   1.039   2.960   2.558
  840SOL    HW1 2475   0.969   2.913   2.612
  840SOL    HW2 2476   1.098   2.892   2.515
  841SOL     OW 2477   1.014   2.098   2.833
  841SOL    HW1 2478   1.006   2.062   2.740
  841SOL    HW2 2479   1.012   2.022   2.898
  842SOL     OW 2480   0.590   3.349   2.353
  842SOL    HW1 2481   0.632   3.291   2.283
  842SOL    HW2 2482   0.546   3.428   2.309
  843SOL     OW 2483   1.709   2.247   3.243
  843SOL    HW1 2484   1.782   2.316   3.247
  843SOL    HW2 2485   1.737   2.172   3.184
  844SOL     OW 2486   0.255   3.210   2.152
  844SOL    HW1 2487   0.159   3.211   2.125
  844SOL    HW2 2488   0.267   3.263   2.236
  845SOL     OW 2489   0.105   2.875   3.588
  845SOL    HW1 2490   0.028   2.842   3.642
  845SOL    HW2 2491   0.190   2.845   3.630
  846SOL     OW 2492   0.672   2.065   3.351
  846SOL    HW1 2493   0.762   2.049   3.311
  846SOL    HW2 2494   0.680   2.070   3.450
  847SOL     OW 2495   0.075   2.207   1.895
  847SOL    HW1 2496  -0.017   2.179   1.866
  847SOL    HW2 2497   0.106   2.284   1.839
  848SOL     OW 2498   1.440   2.718   3.260
  848SOL    HW1 2499   1.383   2.770   3.197
  848SOL    HW2 2500   1.536   2.730   3.236
  849SOL     OW 2501   0.072   2.028   2.180
  849SOL    HW1 2502   0.055   2.111   2.126
  849SOL    HW2 2503   0.162   1.991   2.158
  850SOL     OW 2504   1.183   3.197   1.981
  850SOL    HW1 2505   1.084   3.186   1.983
  850SOL    HW2 2506   1.217   3.212   2.074
  851SOL     OW 2507   0.613   2.704   3.293
  851SOL    HW1 2508   0.669   2.785   3.276
  851SOL    HW2 2509   0.672   2.624   3.296
  852SOL     OW 2510   1.493   3.629   2.821
  852SOL    HW1 2511   1.526   3.693   2.752
  852SOL    HW2 2512   1.559   3.623   2.896
  853SOL     OW 2513   0.716   2.427   3.570
  853SOL    HW1 2514   0.735   2.492   3.644
  853SOL    HW2 2515   0.776   2.347   3.579
  854SOL     OW 2516   1.450   3.082   3.495
  854SOL    HW1 2517   1.441   3.072   3.594
  854SOL    HW2 2518   1.546   3.075   3.469
  855SOL     OW 2519   0.390   3.603   3.422
  855SOL    HW1 2520   0.299   3.644   3.420
  855SOL    HW2 2521   0.383   3.509   3.454
  856SOL     OW 2522   1.674   2.745   3.116
  856SOL    HW1 2523   1.647   2.656   3.079
  856SOL    HW2 2524   1.675   2.813   3.043
  857SOL     OW 2525   1.225   2.187   2.311
  857SOL    HW1 2526   1.290   2.113   2.300
  857SOL    HW2 2527   1.245   2.237   2.395
  858SOL     OW 2528   0.594   2.607   2.514
  858SOL    HW1 2529   0.644   2.692   2.495
  858SOL    HW2 2530   0.506   2.609   2.466
  859SOL     OW 2531   1.777   2.204   3.504
  859SOL    HW1 2532   1.760   2.235   3.410
  859SOL    HW2 2533   1.693   2.167   3.542
  860SOL     OW 2534   1.730   2.796   3.379
  860SOL    HW1 2535   1.768   2.887   3.394
  860SOL    HW2 2536   1.722   2.779   3.280
  861SOL     OW 2537   0.859   3.236   1.878
  861SOL    HW1 2538   0.813   3.251   1.966
  861SOL    HW2 2539   0.903   3.321   1.848
  862SOL     OW 2540   0.661   3.652   2.815
  862SOL    HW1 2541   0.615   3.740   2.802
  862SOL    HW2 2542   0.760   3.664   2.808
  863SOL     OW 2543   0.859   2.818   2.723
  863SOL    HW1 2544   0.913   2.749   2.771
  863SOL    HW2 2545   0.827   2.887   2.789
  864SOL     OW 2546   1.083   2.846   1.949
  864SOL    HW1 2547   1.060   2.899   1.867
  864SOL    HW2 2548   1.164   2.790   1.930
  865SOL     OW 2549   1.861   3.431   2.713
  865SOL    HW1 2550   1.790   3.419   2.643
  865SOL    HW2 2551   1.862   3.352   2.773
  866SOL     OW 2552   0.221   3.176   3.706
  866SOL    HW1 2553   0.156   3.103   3.685
  866SOL    HW2 2554   0.225   3.190   3.804
  867SOL     OW 2555   0.079   3.102   2.515
  867SOL    HW1 2556   0.078   3.055   2.603
  867SOL    HW2 2557   0.161   3.074   2.464
  868SOL     OW 2558   0.672   3.253   3.486
  868SOL    HW1 2559   0.594   3.203   3.524
  868SOL    HW2 2560   0.669   3.348   3.517
  869SOL     OW 2561   1.824   2.054   3.089
  869SOL    HW1 2562   1.820   1.964   3.133
  869SOL    HW2 2563   1.827   2.043   2.990
  870SOL     OW 2564   0.428   2.286   2.382
  870SOL    HW1 2565   0.458   2.214   2.320
  870SOL    HW2 2566   0.389   2.246   2.465
  871SOL     OW 2567   1.705   3.349   2.966
  871SOL    HW1 2568   1.612   3.324   2.939
  871SOL    HW2 2569   1.731   3.299   3.048
  872SOL     OW 2570   0.317   2.409   3.142
  872SOL    HW1 2571   0.355   2.350   3.214
  872SOL    HW2 2572   0.357   2.383   3.054
  873SOL     OW 2573   0.812   3.448   2.549
  873SOL    HW1 2574   0.844   3.458   2.455
  873SOL    HW2 2575   0.733   3.386   2.551
  874SOL     OW 2576   1.424   2.076   2.974
  874SOL    HW1 2577   1.476   2.011   3.029
  874SOL    HW2 2578   1.375   2.139   3.035
  875SOL     OW 2579   1.001   1.896   3.016
  875SOL    HW1 2580   0.938   1.824   2.985
  875SOL    HW2 2581   1.094   1.860   3.016
  876SOL     OW 2582   0.770   3.192   2.163
  876SOL    HW1 2583   0.724   3.105   2.180
  876SOL    HW2 2584   0.861   3.189   2.204
  877SOL     OW 2585   0.618   3.429   3.146
  877SOL    HW1 2586   0.613   3.511   3.203
  877SOL    HW2 2587   0.707   3.426   3.101
  878SOL     OW 2588   1.352   1.914   2.030
  878SOL    HW1 2589   1.387   1.873   1.946
  878SOL    HW2 2590   1.262   1.876   2.050
  879SOL     OW 2591   1.300   2.315   2.553
  879SOL    HW1 2592   1.241   2.395   2.557
  879SOL    HW2 2593   1.315   2.280   2.646
  880SOL     OW 2594   1.593   2.083   2.744
  880SOL    HW1 2595   1.509   2.082   2.798
  880SOL    HW2 2596   1.595   2.166   2.688
  881SOL     OW 2597   0.039   2.939   2.162
  881SOL    HW1 2598   0.138   2.928   2.153
  881SOL    HW2 2599  -0.001   2.853   2.194
  882SOL     OW 2600   0.875   3.508   2.199
  882SOL    HW1 2601   0.798   3.473   2.145
  882SOL    HW2 2602   0.843   3.579   2.261
  883SOL     OW 2603   0.903   3.810   1.995
  883SOL    HW1 2604   0.954   3.811   1.909
  883SOL    HW2 2605   0.959   3.768   2.066
  884SOL     OW 2606   2.092   0.628   0.113
  884SOL    HW1 2607   1.999   0.626   0.150
  884SOL    HW2 2608   2.093   0.589   0.021
  885SOL     OW 2609   2.087   0.275   0.996
  885SOL    HW1 2610   2.122   0.258   1.088
  885SOL    HW2 2611   1.999   0.230   0.984
  886SOL     OW 2612   1.881   0.368   0.647
  886SOL    HW1 2613   1.799   0.411   0.686
  886SOL    HW2 2614   1.853   0.295   0.584
  887SOL     OW 2615   2.431   1.275   1.165
  887SOL    HW1 2616   2.338   1.268   1.128
  887SOL    HW2 2617   2.442   1.364   1.209
  888SOL     OW 2618   3.417   1.511   0.703
  888SOL    HW1 2619   3.360   1.495   0.784
  888SOL    HW2 2620   3.358   1.521   0.623
  889SOL     OW 2621   2.997   0.703   0.717
  889SOL    HW1 2622   3.054   0.781   0.692
  889SOL    HW2 2623   2.937   0.729   0.793
  890SOL     OW 2624   3.617   0.607   0.231
  890SOL    HW1 2625   3.605   0.594   0.132
  890SOL    HW2 2626   3.587   0.526   0.280
  891SOL     OW 2627   2.630   1.144   1.023
  891SOL    HW1 2628   2.552   1.161   1.083
  891SOL    HW2 2629   2.664   1.231   0.987
  892SOL     OW 2630   2.712   0.798   1.823
  892SOL    HW1 2631   2.708   0.874   1.888
  892SOL    HW2 2632   2.734   0.834   1.732
  893SOL     OW 2633   2.547   1.012   0.665
  893SOL    HW1 2634   2.616   0.996   0.735
  893SOL    HW2 2635   2.474   1.069   0.703
  894SOL     OW 2636   2.548   1.161   1.803
  894SOL    HW1 2637   2.608   1.240   1.817
  894SOL    HW2 2638   2.462   1.192   1.762
  895SOL     OW 2639   2.197   1.435   1.061
  895SOL    HW1 2640   2.119   1.404   1.008
  895SOL    HW2 2641   2.255   1.493   1.004
  896SOL     OW 2642   3.322   1.505   1.339
  896SOL    HW1 2643   3.346   1.599   1.365
  896SOL    HW2 2644   3.306   1.451   1.421
  897SOL     OW 2645   2.300   0.392   1.499
  897SOL    HW1 2646   2.382   0.336   1.508
  897SOL    HW2 2647   2.219   0.334   1.503
  898SOL     OW 2648   3.465   0.447   0.737
  898SOL    HW1 2649   3.391   0.493   0.687
  898SOL    HW2 2650   3.516   0.515   0.790
  899SOL     OW 2651   2.093   1.713   0.483
  899SOL    HW1 2652   2.127   1.790   0.537
  899SOL    HW2 2653   2.137   1.713   0.393
  900SOL     OW 2654   2.989   1.341   1.690
  900SOL    HW1 2655   3.036   1.341   1.778
  900SOL    HW2 2656   2.941   1.254   1.679
  901SOL     OW 2657   2.092   1.434   0.538
  901SOL    HW1 2658   2.066   1.530   0.538
  901SOL    HW2 2659   2.021   1.380   0.583
  902SOL     OW 2660   2.102   1.091   0.886
  902SOL    HW1 2661   2.116   1.007   0.938
  902SOL    HW2 2662   2.047   1.155   0.941
  903SOL     OW 2663   2.482   1.786   1.439
  903SOL    HW1 2664   2.390   1.769   1.474
  903SOL    HW2 2665   2.510   1.878   1.465
  904SOL     OW 2666   2.468   0.964   0.123
  904SOL    HW1 2667   2.475   1.048   0.069
  904SOL    HW2 2668   2.514   0.977   0.211
  905SOL     OW 2669   3.456   0.114   1.480
  905SOL    HW1 2670   3.438   0.181   1.408
  905SOL    HW2 2671   3.453   0.160   1.569
  906SOL     OW 2672   1.984   0.643   0.563
  906SOL    HW1 2673   1.939   0.555   0.580
  906SOL    HW2 2674   1.983   0.697   0.647
  907SOL     OW 2675   3.704   1.767   0.359
  907SOL    HW1 2676   3.758   1.738   0.439
  907SOL    HW2 2677   3.734   1.857   0.330
  908SOL     OW 2678   1.889   1.596   0.117
  908SOL    HW1 2679   1.870   1.500   0.138
  908SOL    HW2 2680   1.856   1.654   0.192
  909SOL     OW 2681   3.551   0.922   0.612
  909SOL    HW1 2682   3.646   0.893   0.620
  909SOL    HW2 2683   3.543   0.987   0.537
  910SOL     OW 2684   3.503   1.108   0.432
  910SOL    HW1 2685   3.589   1.110   0.380
  910SOL    HW2 2686   3.517   1.155   0.520
  911SOL     OW 2687   1.975   0.737   1.597
  911SOL    HW1 2688   2.063   0.724   1.642
  911SOL    HW2 2689   1.962   0.834   1.575
  912SOL     OW 2690   2.475   1.365   0.726
  912SOL    HW1 2691   2.426   1.278   0.735
  912SOL    HW2 2692   2.452   1.408   0.639
  913SOL     OW 2693   3.155   1.228   1.423
  913SOL    HW1 2694   3.192   1.155   1.365
  913SOL    HW2 2695   3.207   1.233   1.508
  914SOL     OW 2696   2.671   0.004   0.502
  914SOL    HW1 2697   2.711   0.095   0.493
  914SOL    HW2 2698   2.571   0.012   0.508
  915SOL     OW 2699   2.059   0.976   1.264
  915SOL    HW1 2700   2.148   0.931   1.250
  915SOL    HW2 2701   1.986   0.911   1.245
  916SOL     OW 2702   3.387   0.999   0.190
  916SOL    HW1 2703   3.324   0.923   0.203
  916SOL    HW2 2704   3.435   1.017   0.276
  917SOL     OW 2705   3.049   1.792   1.616
  917SOL    HW1 2706   3.073   1.852   1.540
  917SOL    HW2 2707   3.056   1.697   1.586
  918SOL     OW 2708   2.179   0.251   1.801
  918SOL    HW1 2709   2.250   0.322   1.807
  918SOL    HW2 2710   2.091   0.290   1.829
  919SOL     OW 2711   3.328   1.417   0.953
  919SOL    HW1 2712   3.269   1.423   1.033
  919SOL    HW2 2713   3.313   1.329   0.907
  920SOL     OW 2714   3.529   1.714   0.572
  920SOL    HW1 2715   3.488   1.691   0.484
  920SOL    HW2 2716   3.511   1.640   0.637
  921SOL     OW 2717   2.460   0.729   0.270
  921SOL    HW1 2718   2.484   0.798   0.202
  921SOL    HW2 2719   2.382   0.762   0.324
  922SOL     OW 2720   3.143   0.345   0.944
  922SOL    HW1 2721   3.057   0.295   0.931
  922SOL    HW2 2722   3.205   0.291   1.000
  923SOL     OW 2723   3.438   1.662   0.307
  923SOL    HW1 2724   3.527   1.708   0.310
  923SOL    HW2 2725   3.417   1.638   0.212
  924SOL     OW 2726   2.669   0.605   1.465
  924SOL    HW1 2727   2.622   0.602   1.554
  924SOL    HW2 2728   2.618   0.550   1.399
  925SOL     OW 2729   3.256   0.469   1.674
  925SOL    HW1 2730   3.236   0.512   1.762
  925SOL    HW2 2731   3.334   0.407   1.683
  926SOL     OW 2732   2.835   0.890   1.572
  926SOL    HW1 2733   2.881   0.806   1.543
  926SOL    HW2 2734   2.779   0.924   1.497
  927SOL     OW 2735   2.853   0.410   1.242
  927SOL    HW1 2736   2.776   0.444   1.296
  927SOL    HW2 2737   2.819   0.359   1.163
  928SOL     OW 2738   2.903   0.701   0.429
  928SOL    HW1 2739   2.929   0.697   0.525
  928SOL    HW2 2740   2.818   0.650   0.415
  929SOL     OW 2741   1.938   0.811   0.789
  929SOL    HW1 2742   2.037   0.799   0.798
  929SOL    HW2 2743   1.914   0.906   0.810
  930SOL     OW 2744   2.727   0.348   0.195
  930SOL    HW1 2745   2.786   0.411   0.146
  930SOL    HW2 2746   2.746   0.254   0.166
  931SOL     OW 2747   3.581   0.585   1.831
  931SOL    HW1 2748   3.555   0.674   1.795
  931SOL    HW2 2749   3.579   0.517   1.758
  932SOL     OW 2750   3.224   1.144   0.545
  932SOL    HW1 2751   3.307   1.115   0.497
  932SOL    HW2 2752   3.175   1.211   0.489
  933SOL     OW 2753   2.412   0.196   0.885
  933SOL    HW1 2754   2.407   0.191   0.985
  933SOL    HW2 2755   2.414   0.292   0.856
  934SOL     OW 2756   2.870   1.456   0.477
  934SOL    HW1 2757   2.824   1.528   0.425
  934SOL    HW2 2758   2.866   1.476   0.575
  935SOL     OW 2759   2.213   1.801   0.853
  935SOL    HW1 2760   2.263   1.715   0.859
  935SOL    HW2 2761   2.278   1.878   0.850
  936SOL     OW 2762   3.657   1.066   0.873
  936SOL    HW1 2763   3.595   1.051   0.797
  936SOL    HW2 2764   3.605   1.077   0.958
  937SOL     OW 2765   3.089   1.550   1.506
  937SOL    HW1 2766   3.095   1.473   1.570
  937SOL    HW2 2767   3.037   1.524   1.426
  938SOL     OW 2768   2.183   0.943   0.242
  938SOL    HW1 2769   2.265   0.982   0.200
  938SOL    HW2 2770   2.156   0.861   0.193
  939SOL     OW 2771   3.320   0.735   0.728
  939SOL    HW1 2772   3.315   0.670   0.803
  939SOL    HW2 2773   3.400   0.794   0.741
  940SOL     OW 2774   2.973   1.776   0.237
  940SOL    HW1 2775   2.913   1.714   0.287
  940SOL    HW2 2776   3.004   1.732   0.152
  941SOL     OW 2777   2.064   0.285   1.498
  941SOL    HW1 2778   1.984   0.345   1.485
  941SOL    HW2 2779   2.054   0.236   1.584
  942SOL     OW 2780   3.494   1.377   0.081
  942SOL    HW1 2781   3.462   1.471   0.071
  942SOL    HW2 2782   3.418   1.314   0.069
  943SOL     OW 2783   2.326   1.743   0.323
  943SOL    HW1 2784   2.359   1.782   0.409
  943SOL    HW2 2785   2.402   1.736   0.258
  944SOL     OW 2786   3.262   0.107   0.426
  944SOL    HW1 2787   3.238   0.070   0.336
  944SOL    HW2 2788   3.361   0.123   0.430
  945SOL     OW 2789   2.111   1.785   1.241
  945SOL    HW1 2790   2.168   1.720   1.291
  945SOL    HW2 2791   2.095   1.752   1.148
  946SOL     OW 2792   2.802   1.698   0.904
  946SOL    HW1 2793   2.882   1.641   0.925
  946SOL    HW2 2794   2.753   1.658   0.827
  947SOL     OW 2795   2.244   0.700   0.480
  947SOL    HW1 2796   2.289   0.610   0.477
  947SOL    HW2 2797   2.150   0.689   0.513
  948SOL     OW 2798   3.409   0.222   1.729
  948SOL    HW1 2799   3.404   0.259   1.821
  948SOL    HW2 2800   3.337   0.153   1.717
  949SOL     OW 2801   2.476   0.122   0.117
  949SOL    HW1 2802   2.574   0.100   0.124
  949SOL    HW2 2803   2.445   0.105   0.024
  950SOL     OW 2804   2.643   0.264   1.749
  950SOL    HW1 2805   2.710   0.203   1.792
  950SOL    HW2 2806   2.570   0.283   1.814
  951SOL     OW 2807   2.750   1.514   1.195
  951SOL    HW1 2808   2.727   1.489   1.101
  951SOL    HW2 2809   2.811   1.445   1.234
  952SOL     OW 2810   3.213   0.590   1.433
  952SOL    HW1 2811   3.241   0.547   1.518
  952SOL    HW2 2812   3.238   0.686   1.434
  953SOL     OW 2813   2.665   1.402   0.924
  953SOL    HW1 2814   2.755   1.416   0.882
  953SOL    HW2 2815   2.594   1.404   0.853
  954SOL     OW 2816   2.784   0.503   0.899
  954SOL    HW1 2817   2.759   0.494   0.803
  954SOL    HW2 2818   2.832   0.421   0.930
  955SOL     OW 2819   2.401   0.064   0.512
  955SOL    HW1 2820   2.320   0.065   0.570
  955SOL    HW2 2821   2.404   0.147   0.457
  956SOL     OW 2822   3.296   1.188   0.041
  956SOL    HW1 2823   3.328   1.112   0.098
  956SOL    HW2 2824   3.204   1.215   0.071
  957SOL     OW 2825   2.159   0.035   0.171
  957SOL    HW1 2826   2.208   0.119   0.150
  957SOL    HW2 2827   2.221  -0.030   0.216
  958SOL     OW 2828   2.797   0.236   0.480
  958SOL    HW1 2829   2.749   0.277   0.402
  958SOL    HW2 2830   2.896   0.234   0.461
  959SOL     OW 2831   2.938   0.683   1.464
  959SOL    HW1 2832   2.858   0.622   1.467
  959SOL    HW2 2833   3.019   0.630   1.440
  960SOL     OW 2834   3.089   1.570   0.793
  960SOL    HW1 2835   3.110   1.644   0.728
  960SOL    HW2 2836   3.157   1.570   0.866
  961SOL     OW 2837   2.321   1.152   0.741
  961SOL    HW1 2838   2.250   1.125   0.806
  961SOL    HW2 2839   2.295   1.124   0.648
  962SOL     OW 2840   3.133   1.797   0.591
  962SOL    HW1 2841   3.177   1.861   0.527
  962SOL    HW2 2842   3.083   1.849   0.661
  963SOL     OW 2843   2.894   0.549   0.016
  963SOL    HW1 2844   2.853   0.631  -0.023
  963SOL    HW2 2845   2.958   0.575   0.089
  964SOL     OW 2846   1.940   0.556   1.386
  964SOL    HW1 2847   2.032   0.555   1.345
  964SOL    HW2 2848   1.934   0.630   1.453
  965SOL     OW 2849   2.423   0.222   1.147
  965SOL    HW1 2850   2.461   0.138   1.184
  965SOL    HW2 2851   2.335   0.241   1.191
  966SOL     OW 2852   2.728   0.454   0.642
  966SOL    HW1 2853   2.696   0.526   0.580
  966SOL    HW2 2854   2.752   0.373   0.589
  967SOL     OW 2855   2.879   0.039   0.753
  967SOL    HW1 2856   2.807   0.044   0.684
  967SOL    HW2 2857   2.855  -0.030   0.822
  968SOL     OW 2858   3.291   1.173   0.867
  968SOL    HW1 2859   3.236   1.089   0.860
  968SOL    HW2 2860   3.317   1.202   0.775
  969SOL     OW 2861   3.328   0.590   0.992
  969SOL    HW1 2862   3.298   0.495   0.999
  969SOL    HW2 2863   3.401   0.606   1.058
  970SOL     OW 2864   3.719   0.833   0.377
  970SOL    HW1 2865   3.761   0.769   0.441
  970SOL    HW2 2866   3.681   0.782   0.299
  971SOL     OW 2867   2.350   1.385   0.174
  971SOL    HW1 2868   2.263   1.370   0.221
  971SOL    HW2 2869   2.333   1.411   0.079
  972SOL     OW 2870   3.526   1.280   0.657
  972SOL    HW1 2871   3.625   1.288   0.671
  972SOL    HW2 2872   3.481   1.364   0.688
  973SOL     OW 2873   3.252   0.575   0.078
  973SOL    HW1 2874   3.198   0.554   0.159
  973SOL    HW2 2875   3.343   0.534   0.087
  974SOL     OW 2876   2.389   0.256   0.328
  974SOL    HW1 2877   2.416   0.197   0.253
  974SOL    HW2 2878   2.389   0.351   0.297
  975SOL     OW 2879   3.616   1.223   1.588
  975SOL    HW1 2880   3.707   1.184   1.575
  975SOL    HW2 2881   3.624   1.319   1.612
  976SOL     OW 2882   2.926   1.347   1.340
  976SOL    HW1 2883   2.846   1.324   1.395
  976SOL    HW2 2884   3.009   1.321   1.389
  977SOL     OW 2885   3.454   1.629   1.625
  977SOL    HW1 2886   3.481   1.663   1.535
  977SOL    HW2 2887   3.533   1.591   1.671
  978SOL     OW 2888   2.973   1.195   1.100
  978SOL    HW1 2889   2.933   1.239   1.181
  978SOL    HW2 2890   2.932   1.232   1.017
  979SOL     OW 2891   3.500   1.099   1.079
  979SOL    HW1 2892   3.505   1.180   1.138
  979SOL    HW2 2893   3.414   1.101   1.028
  980SOL     OW 2894   2.777   0.089   1.402
  980SOL    HW1 2895   2.802   0.069   1.307
  980SOL    HW2 2896   2.849   0.145   1.444
  981SOL     OW 2897   2.842   1.116   1.719
  981SOL    HW1 2898   2.743   1.122   1.729
  981SOL    HW2 2899   2.865   1.036   1.663
  982SOL     OW 2900   2.567   1.050   0.368
  982SOL    HW1 2901   2.553   1.057   0.467
  982SOL    HW2 2902   2.651   0.999   0.350
  983SOL     OW 2903   2.272   0.813   1.251
  983SOL    HW1 2904   2.358   0.825   1.301
  983SOL    HW2 2905   2.230   0.726   1.278
  984SOL     OW 2906   3.136   0.386   1.262
  984SOL    HW1 2907   3.157   0.460   1.326
  984SOL    HW2 2908   3.047   0.403   1.219
  985SOL     OW 2909   2.229   1.100   0.501
  985SOL    HW1 2910   2.222   1.183   0.445
  985SOL    HW2 2911   2.233   1.020   0.441
  986SOL     OW 2912   2.428   0.537   0.865
  986SOL    HW1 2913   2.440   0.603   0.791
  986SOL    HW2 2914   2.474   0.571   0.948
  987SOL     OW 2915   3.114   1.348   0.388
  987SOL    HW1 2916   3.164   1.425   0.428
  987SOL    HW2 2917   3.019   1.350   0.420
  988SOL     OW 2918   3.134   1.445   1.142
  988SOL    HW1 2919   3.181   1.458   1.229
  988SOL    HW2 2920   3.068   1.371   1.151
  989SOL     OW 2921   3.444   0.639   0.472
  989SOL    HW1 2922   3.413   0.700   0.545
  989SOL    HW2 2923   3.494   0.691   0.403
  990SOL     OW 2924   2.216   1.510   1.329
  990SOL    HW1 2925   2.195   1.466   1.242
  990SOL    HW2 2926   2.313   1.536   1.332
  991SOL     OW 2927   2.264   0.751   1.598
  991SOL    HW1 2928   2.332   0.806   1.551
  991SOL    HW2 2929   2.304   0.663   1.625
  992SOL     OW 2930   3.449   0.779   1.670
  992SOL    HW1 2931   3.357   0.817   1.665
  992SOL    HW2 2932   3.509   0.826   1.605
  993SOL     OW 2933   2.875   0.105   1.770
  993SOL    HW1 2934   2.881   0.190   1.718
  993SOL    HW2 2935   2.907   0.029   1.713
  994SOL     OW 2936   2.366   0.050   1.740
  994SOL    HW1 2937   2.324  -0.007   1.670
  994SOL    HW2 2938   2.300   0.119   1.772
  995SOL     OW 2939   2.435   0.870   1.029
  995SOL    HW1 2940   2.479   0.959   1.020
  995SOL    HW2 2941   2.372   0.870   1.106
  996SOL     OW 2942   3.222   0.862   1.045
  996SOL    HW1 2943   3.147   0.862   0.979
  996SOL    HW2 2944   3.259   0.770   1.054
  997SOL     OW 2945   3.071   0.525   0.275
  997SOL    HW1 2946   3.084   0.441   0.329
  997SOL    HW2 2947   3.042   0.599   0.335
  998SOL     OW 2948   2.169   0.213   1.231
  998SOL    HW1 2949   2.146   0.250   1.321
  998SOL    HW2 2950   2.139   0.118   1.225
  999SOL     OW 2951   1.899   1.310   1.282
  999SOL    HW1 2952   1.952   1.261   1.350
  999SOL    HW2 2953   1.921   1.408   1.287
 1000SOL     OW 2954   2.594   0.634   1.064
 1000SOL    HW1 2955   2.653   0.608   0.988
 1000SOL    HW2 2956   2.566   0.730   1.053
 1001SOL     OW 2957   3.590   0.935   1.854
 1001SOL    HW1 2958   3.544   0.928   1.765
 1001SOL    HW2 2959   3.528   0.979   1.920
 1002SOL     OW 2960   2.169   0.063   0.618
 1002SOL    HW1 2961   2.158   0.157   0.651
 1002SOL    HW2 2962   2.164   0.000   0.695
 1003SOL     OW 2963   3.484   0.367   0.374
 1003SOL    HW1 2964   3.486   0.291   0.438
 1003SOL    HW2 2965   3.436   0.444   0.414
 1004SOL     OW 2966   2.885   0.766   0.966
 1004SOL    HW1 2967   2.900   0.787   1.062
 1004SOL    HW2 2968   2.855   0.671   0.957
 1005SOL     OW 2969   2.842   1.573   1.700
 1005SOL    HW1 2970   2.822   1.617   1.612
 1005SOL    HW2 2971   2.881   1.482   1.684
 1006SOL     OW 2972   3.721   1.518   1.605
 1006SOL    HW1 2973   3.735   1.545   1.510
 1006SOL    HW2 2974   3.804   1.540   1.658
 1007SOL     OW 2975   2.212   0.898   1.804
 1007SOL    HW1 2976   2.288   0.942   1.852
 1007SOL    HW2 2977   2.247   0.851   1.722
 1008SOL     OW 2978   3.402   0.274   0.125
 1008SOL    HW1 2979   3.341   0.199   0.148
 1008SOL    HW2 2980   3.424   0.326   0.208
 1009SOL     OW 2981   3.165   0.838   0.042
 1009SOL    HW1 2982   3.199   0.745   0.057
 1009SOL    HW2 2983   3.183   0.865  -0.053
 1010SOL     OW 2984   2.930   1.333   0.849
 1010SOL    HW1 2985   2.937   1.249   0.794
 1010SOL    HW2 2986   2.992   1.402   0.813
 1011SOL     OW 2987   2.181   0.810   0.949
 1011SOL    HW1 2988   2.274   0.846   0.954
 1011SOL    HW2 2989   2.175   0.725   1.001
 1012SOL     OW 2990   2.201   0.509   1.006
 1012SOL    HW1 2991   2.149   0.426   0.989
 1012SOL    HW2 2992   2.278   0.514   0.942
 1013SOL     OW 2993   3.000   0.380   1.678
 1013SOL    HW1 2994   2.955   0.443   1.742
 1013SOL    HW2 2995   3.093   0.411   1.661
 1014SOL     OW 2996   3.022   0.207   1.477
 1014SOL    HW1 2997   3.022   0.271   1.554
 1014SOL    HW2 2998   3.050   0.255   1.394
 1015SOL     OW 2999   1.870   1.326   0.200
 1015SOL    HW1 3000   1.777   1.347   0.169
 1015SOL    HW2 3001   1.880   1.227   0.213
 1016SOL     OW 3002   1.950   1.801   0.927
 1016SOL    HW1 3003   1.908   1.715   0.900
 1016SOL    HW2 3004   2.044   1.804   0.893
 1017SOL     OW 3005   2.366   1.568   0.910
 1017SOL    HW1 3006   2.432   1.642   0.919
 1017SOL    HW2 3007   2.410   1.489   0.868
 1018SOL     OW 3008   2.864   0.796   1.238
 1018SOL    HW1 3009   2.905   0.764   1.324
 1018SOL    HW2 3010   2.768   0.769   1.235
 1019SOL     OW 3011   1.902   0.544   1.114
 1019SOL    HW1 3012   1.987   0.511   1.073
 1019SOL    HW2 3013   1.915   0.559   1.212
 1020SOL     OW 3014   2.051   0.520   1.722
 1020SOL    HW1 3015   2.110   0.480   1.652
 1020SOL    HW2 3016   1.993   0.591   1.681
 1021SOL     OW 3017   3.231   0.950   1.660
 1021SOL    HW1 3018   3.270   1.039   1.680
 1021SOL    HW2 3019   3.241   0.930   1.563
 1022SOL     OW 3020   2.677   0.572   0.325
 1022SOL    HW1 3021   2.684   0.483   0.279
 1022SOL    HW2 3022   2.583   0.606   0.317
 1023SOL     OW 3023   3.519   0.604   1.206
 1023SOL    HW1 3024   3.481   0.535   1.268
 1023SOL    HW2 3025   3.601   0.568   1.162
 1024SOL     OW 3026   2.533   0.464   1.269
 1024SOL    HW1 3027   2.499   0.375   1.239
 1024SOL    HW2 3028   2.559   0.518   1.189
 1025SOL     OW 3029   2.792   1.678   1.465
 1025SOL    HW1 3030   2.768   1.660   1.370
 1025SOL    HW2 3031   2.822   1.772   1.475
 1026SOL     OW 3032   2.335   0.500   0.191
 1026SOL    HW1 3033   2.396   0.580   0.195
 1026SOL    HW2 3034   2.240   0.531   0.198
 1027SOL     OW 3035   2.021   1.137   1.466
 1027SOL    HW1 3036   2.043   1.076   1.542
 1027SOL    HW2 3037   2.031   1.088   1.380
 1028SOL     OW 3038   3.209   1.059   1.234
 1028SOL    HW1 3039   3.233   0.996   1.160
 1028SOL    HW2 3040   3.119   1.099   1.216
 1029SOL     OW 3041   3.164   0.855   0.309
 1029SOL    HW1 3042   3.078   0.824   0.351
 1029SOL    HW2 3043   3.160   0.841   0.210
 1030SOL     OW 3044   3.621   1.747   1.154
 1030SOL    HW1 3045   3.682   1.777   1.081
 1030SOL    HW2 3046   3.583   1.658   1.132
 1031SOL     OW 3047   3.114   1.731   1.128
 1031SOL    HW1 3048   3.198   1.736   1.074
 1031SOL    HW2 3049   3.091   1.635   1.146
 1032SOL     OW 3050   1.945   1.258   1.022
 1032SOL    HW1 3051   1.940   1.257   1.122
 1032SOL    HW2 3052   1.862   1.217   0.984
 1033SOL     OW 3053   2.550   1.662   1.716
 1033SOL    HW1 3054   2.494   1.743   1.725
 1033SOL    HW2 3055   2.602   1.666   1.630
 1034SOL     OW 3056   2.765   0.086   0.133
 1034SOL    HW1 3057   2.816   0.087   0.047
 1034SOL    HW2 3058   2.821   0.044   0.204
 1035SOL     OW 3059   3.588   0.135   0.523
 1035SOL    HW1 3060   3.661   0.118   0.456
 1035SOL    HW2 3061   3.557   0.048   0.561
 1036SOL     OW 3062   3.250   1.573   0.477
 1036SOL    HW1 3063   3.317   1.585   0.403
 1036SOL    HW2 3064   3.210   1.662   0.500
 1037SOL     OW 3065   3.142   0.927   0.672
 1037SOL    HW1 3066   3.202   0.846   0.674
 1037SOL    HW2 3067   3.182   0.996   0.612
 1038SOL     OW 3068   2.692   1.273   1.422
 1038SOL    HW1 3069   2.687   1.306   1.517
 1038SOL    HW2 3070   2.606   1.292   1.376
 1039SOL     OW 3071   2.534   1.616   0.154
 1039SOL    HW1 3072   2.543   1.626   0.055
 1039SOL    HW2 3073   2.494   1.527   0.175
 1040SOL     OW 3074   3.512   1.720   1.394
 1040SOL    HW1 3075   3.565   1.730   1.310
 1040SOL    HW2 3076   3.485   1.810   1.428
 1041SOL     OW 3077   3.703   0.175   0.963
 1041SOL    HW1 3078   3.742   0.090   0.927
 1041SOL    HW2 3079   3.605   0.177   0.944
 1042SOL     OW 3080   2.125   0.326   0.720
 1042SOL    HW1 3081   2.046   0.377   0.686
 1042SOL    HW2 3082   2.116   0.311   0.818
 1043SOL     OW 3083   3.056   1.612   0.031
 1043SOL    HW1 3084   3.062   1.519   0.068
 1043SOL    HW2 3085   2.997   1.612  -0.049
 1044SOL     OW 3086   2.684   1.002   1.372
 1044SOL    HW1 3087   2.724   1.001   1.280
 1044SOL    HW2 3088   2.694   1.094   1.412
 1045SOL     OW 3089   2.778   0.910   0.291
 1045SOL    HW1 3090   2.841   0.948   0.223
 1045SOL    HW2 3091   2.818   0.827   0.330
 1046SOL     OW 3092   3.366   1.607   0.044
 1046SOL    HW1 3093   3.274   1.644   0.051
 1046SOL    HW2 3094   3.404   1.627  -0.046
 1047SOL     OW 3095   2.234   1.288   1.490
 1047SOL    HW1 3096   2.221   1.381   1.456
 1047SOL    HW2 3097   2.150   1.236   1.477
 1048SOL     OW 3098   3.476   1.292   1.289
 1048SOL    HW1 3099   3.536   1.295   1.369
 1048SOL    HW2 3100   3.401   1.356   1.302
 1049SOL     OW 3101   2.901   1.098   0.696
 1049SOL    HW1 3102   2.831   1.051   0.750
 1049SOL    HW2 3103   2.960   1.030   0.653
 1050SOL     OW 3104   2.876   0.236   0.971
 1050SOL    HW1 3105   2.868   0.200   0.878
 1050SOL    HW2 3106   2.874   0.160   1.036
 1051SOL     OW 3107   2.452   1.487   0.491
 1051SOL    HW1 3108   2.494   1.429   0.421
 1051SOL    HW2 3109   2.408   1.566   0.447
 1052SOL     OW 3110   3.571   0.385   1.381
 1052SOL    HW1 3111   3.644   0.454   1.385
 1052SOL    HW2 3112   3.599   0.310   1.322
 1053SOL     OW 3113   2.117   1.348   0.290
 1053SOL    HW1 3114   2.021   1.349   0.263
 1053SOL    HW2 3115   2.129   1.401   0.374
 1054SOL     OW 3116   1.967   1.013   1.726
 1054SOL    HW1 3117   1.890   0.980   1.780
 1054SOL    HW2 3118   2.052   0.983   1.768
 1055SOL     OW 3119   2.534   0.203   1.489
 1055SOL    HW1 3120   2.624   0.187   1.449
 1055SOL    HW2 3121   2.542   0.208   1.588
 1056SOL     OW 3122   1.937   0.345   0.033
 1056SOL    HW1 3123   1.845   0.317   0.004
 1056SOL    HW2 3124   1.968   0.422  -0.023
 1057SOL     OW 3125   3.302   0.856   1.398
 1057SOL    HW1 3126   3.245   0.908   1.335
 1057SOL    HW2 3127   3.398   0.868   1.374
 1058SOL     OW 3128   1.934   0.166   0.318
 1058SOL    HW1 3129   1.917   0.249   0.264
 1058SOL    HW2 3130   2.024   0.129   0.296
 1059SOL     OW 3131   3.045   1.335   0.119
 1059SOL    HW1 3132   2.946   1.324   0.121
 1059SOL    HW2 3133   3.079   1.350   0.212
 1060SOL     OW 3134   2.475   0.842   1.431
 1060SOL    HW1 3135   2.531   0.923   1.414
 1060SOL    HW2 3136   2.534   0.762   1.434
 1061SOL     OW 3137   3.355   1.767   0.959
 1061SOL    HW1 3138   3.388   1.831   0.890
 1061SOL    HW2 3139   3.421   1.761   1.034
 1062SOL     OW 3140   2.578   0.565   1.708
 1062SOL    HW1 3141   2.597   0.630   1.782
 1062SOL    HW2 3142   2.638   0.485   1.717
 1063SOL     OW 3143   3.312   1.220   1.633
 1063SOL    HW1 3144   3.303   1.210   1.732
 1063SOL    HW2 3145   3.408   1.213   1.607
 1064SOL     OW 3146   2.252   1.741   1.560
 1064SOL    HW1 3147   2.161   1.782   1.558
 1064SOL    HW2 3148   2.245   1.647   1.592
 1065SOL     OW 3149   3.536   0.883   1.254
 1065SOL    HW1 3150   3.509   0.794   1.217
 1065SOL    HW2 3151   3.537   0.951   1.181
 1066SOL     OW 3152   3.087   0.325   0.449
 1066SOL    HW1 3153   3.152   0.251   0.438
 1066SOL    HW2 3154   3.107   0.375   0.533
 1067SOL     OW 3155   2.456   0.745   0.652
 1067SOL    HW1 3156   2.506   0.830   0.633
 1067SOL    HW2 3157   2.368   0.747   0.604
 1068SOL     OW 3158   3.639   0.342   1.642
 1068SOL    HW1 3159   3.622   0.373   1.548
 1068SOL    HW2 3160   3.555   0.305   1.680
 1069SOL     OW 3161   3.592   0.934   1.517
 1069SOL    HW1 3162   3.630   1.025   1.532
 1069SOL    HW2 3163   3.584   0.917   1.418
 1070SOL     OW 3164   2.721   1.374   0.016
 1070SOL    HW1 3165   2.675   1.389   0.104
 1070SOL    HW2 3166   2.765   1.459  -0.014
 1071SOL     OW 3167   2.523   1.790   0.953
 1071SOL    HW1 3168   2.477   1.878   0.940
 1071SOL    HW2 3169   2.622   1.802   0.946
 1072SOL     OW 3170   2.721   0.956   0.861
 1072SOL    HW1 3171   2.775   0.887   0.909
 1072SOL    HW2 3172   2.689   1.025   0.927
 1073SOL     OW 3173   2.945   0.984   0.087
 1073SOL    HW1 3174   2.922   1.037   0.005
 1073SOL    HW2 3175   3.026   0.928   0.068
 1074SOL     OW 3176   3.723   1.569   0.851
 1074SOL    HW1 3177   3.652   1.557   0.781
 1074SOL    HW2 3178   3.724   1.490   0.911
 1075SOL     OW 3179   1.941   1.240   0.653
 1075SOL    HW1 3180   1.940   1.193   0.741
 1075SOL    HW2 3181   2.023   1.212   0.602
 1076SOL     OW 3182   2.534   1.391   1.624
 1076SOL    HW1 3183   2.456   1.341   1.662
 1076SOL    HW2 3184   2.531   1.486   1.655
 1077SOL     OW 3185   3.686   0.192   1.227
 1077SOL    HW1 3186   3.682   0.102   1.271
 1077SOL    HW2 3187   3.689   0.181   1.128
 1078SOL     OW 3188   2.290   0.424   0.520
 1078SOL    HW1 3189   2.320   0.352   0.458
 1078SOL    HW2 3190   2.251   0.384   0.603
 1079SOL     OW 3191   3.567   1.487   1.104
 1079SOL    HW1 3192   3.474   1.462   1.077
 1079SOL    HW2 3193   3.593   1.437   1.186
 1080SOL     OW 3194   2.179   0.547   1.280
 1080SOL    HW1 3195   2.217   0.488   1.352
 1080SOL    HW2 3196   2.219   0.521   1.192
 1081SOL     OW 3197   2.674   1.586   0.687
 1081SOL    HW1 3198   2.706   1.596   0.593
 1081SOL    HW2 3199   2.595   1.524   0.689
 1082SOL     OW 3200   3.286   0.214   1.112
 1082SOL    HW1 3201   3.338   0.149   1.167
 1082SOL    HW2 3202   3.237   0.277   1.173
 1083SOL     OW 3203   2.863   0.034   1.154
 1083SOL    HW1 3204   2.800  -0.038   1.123
 1083SOL    HW2 3205   2.956  -0.002   1.154
 1084SOL     OW 3206   2.632   1.330   0.301
 1084SOL    HW1 3207   2.586   1.243   0.318
 1084SOL    HW2 3208   2.723   1.327   0.342
 1085SOL     OW 3209   2.480   1.567   1.284
 1085SOL    HW1 3210   2.475   1.649   1.341
 1085SOL    HW2 3211   2.569   1.564   1.239
 1086SOL     OW 3212   3.214   0.052   0.168
 1086SOL    HW1 3213   3.249   0.011   0.084
 1086SOL    HW2 3214   3.124   0.014   0.188
 1087SOL     OW 3215   3.162   0.453   0.691
 1087SOL    HW1 3216   3.103   0.533   0.695
 1087SOL    HW2 3217   3.177   0.418   0.784
 1088SOL     OW 3218   3.455   0.221   0.882
 1088SOL    HW1 3219   3.371   0.220   0.936
 1088SOL    HW2 3220   3.457   0.304   0.826
 1089SOL     OW 3221   1.901   1.077   0.300
 1089SOL    HW1 3222   2.000   1.066   0.291
 1089SOL    HW2 3223   1.861   0.991   0.332
 1090SOL     OW 3224   2.737   1.646   0.337
 1090SOL    HW1 3225   2.660   1.611   0.283
 1090SOL    HW2 3226   2.705   1.717   0.399
 1091SOL     OW 3227   2.092   0.628   1.975
 1091SOL    HW1 3228   1.999   0.626   2.012
 1091SOL    HW2 3229   2.093   0.589   1.883
 1092SOL     OW 3230   2.087   0.275   2.858
 1092SOL    HW1 3231   2.122   0.258   2.950
 1092SOL    HW2 3232   1.999   0.230   2.846
 1093SOL     OW 3233   1.881   0.368   2.509
 1093SOL    HW1 3234   1.799   0.411   2.548
 1093SOL    HW2 3235   1.853   0.295   2.446
 1094SOL     OW 3236   2.431   1.275   3.027
 1094SOL    HW1 3237   2.338   1.268   2.990
 1094SOL    HW2 3238   2.442   1.364   3.071
 1095SOL     OW 3239   3.417   1.511   2.565
 1095SOL    HW1 3240   3.360   1.495   2.646
 1095SOL    HW2 3241   3.358   1.521   2.485
 1096SOL     OW 3242   2.997   0.703   2.579
 1096SOL    HW1 3243   3.054   0.781   2.554
 1096SOL    HW2 3244   2.937   0.729   2.655
 1097SOL     OW 3245   3.617   0.607   2.093
 1097SOL    HW1 3246   3.605   0.594   1.994
 1097SOL    HW2 3247   3.587   0.526   2.142
 1098SOL     OW 3248   2.630   1.144   2.885
 1098SOL    HW1 3249   2.552   1.161   2.945
 1098SOL    HW2 3250   2.664   1.231   2.849
 1099SOL     OW 3251   2.712   0.798   3.685
 1099SOL    HW1 3252   2.708   0.874   3.750
 1099SOL    HW2 3253   2.734   0.834   3.594
 1100SOL     OW 3254   2.547   1.012   2.527
 1100SOL    HW1 3255   2.616   0.996   2.597
 1100SOL    HW2 3256   2.474   1.069   2.565
 1101SOL     OW 3257   2.548   1.161   3.665
 1101SOL    HW1 3258   2.608   1.240   3.679
 1101SOL    HW2 3259   2.462   1.192   3.624
 1102SOL     OW 3260   2.197   1.435   2.923
 1102SOL    HW1 3261   2.119   1.404   2.870
 1102SOL    HW2 3262   2.255   1.493   2.866
 1103SOL     OW 3263   3.322   1.505   3.201
 1103SOL    HW1 3264   3.346   1.599   3.227
 1103SOL    HW2 3265   3.306   1.451   3.283
 1104SOL     OW 3266   2.300   0.392   3.361
 1104SOL    HW1 3267   2.382   0.336   3.370
 1104SOL    HW2 3268   2.219   0.334   3.365
 1105SOL     OW 3269   3.465   0.447   2.599
 1105SOL    HW1 3270   3.391   0.493   2.549
 1105SOL    HW2 3271   3.516   0.515   2.652
 1106SOL     OW 3272   2.989   1.341   3.552
 1106SOL    HW1 3273   3.036   1.341   3.640
 1106SOL    HW2 3274   2.941   1.254   3.541
 1107SOL     OW 3275   2.102   1.091   2.748
 1107SOL    HW1 3276   2.116   1.007   2.800
 1107SOL    HW2 3277   2.047   1.155   2.803
 1108SOL     OW 3278   2.482   1.786   3.301
 1108SOL    HW1 3279   2.390   1.769   3.336
 1108SOL    HW2 3280   2.510   1.878   3.327
 1109SOL     OW 3281   2.468   0.964   1.985
 1109SOL    HW1 3282   2.475   1.048   1.931
 1109SOL    HW2 3283   2.514   0.977   2.073
 1110SOL     OW 3284   3.456   0.114   3.342
 1110SOL    HW1 3285   3.438   0.181   3.270
 1110SOL    HW2 3286   3.453   0.160   3.431
 1111SOL     OW 3287   1.984   0.643   2.425
 1111SOL    HW1 3288   1.939   0.555   2.442
 1111SOL    HW2 3289   1.983   0.697   2.509
 1112SOL     OW 3290   3.704   1.767   2.221
 1112SOL    HW1 3291   3.758   1.738   2.301
 1112SOL    HW2 3292   3.734   1.857   2.192
 1113SOL     OW 3293   3.551   0.922   2.474
 1113SOL    HW1 3294   3.646   0.893   2.482
 1113SOL    HW2 3295   3.543   0.987   2.399
 1114SOL     OW 3296   3.503   1.108   2.294
 1114SOL    HW1 3297   3.589   1.110   2.242
 1114SOL    HW2 3298   3.517   1.155   2.382
 1115SOL     OW 3299   1.975   0.737   3.459
 1115SOL    HW1 3300   2.063   0.724   3.504
 1115SOL    HW2 3301   1.962   0.834   3.437
 1116SOL     OW 3302   2.475   1.365   2.588
 1116SOL    HW1 3303   2.426   1.278   2.597
 1116SOL    HW2 3304   2.452   1.408   2.501
 1117SOL     OW 3305   3.155   1.228   3.285
 1117SOL    HW1 3306   3.192   1.155   3.227
 1117SOL    HW2 3307   3.207   1.233   3.370
 1118SOL     OW 3308   2.671   0.004   2.364
 1118SOL    HW1 3309   2.711   0.095   2.355
 1118SOL    HW2 3310   2.571   0.012   2.370
 1119SOL     OW 3311   2.059   0.976   3.126
 1119SOL    HW1 3312   2.148   0.931   3.112
 1119SOL    HW2 3313   1.986   0.911   3.107
 1120SOL     OW 3314   3.387   0.999   2.052
 1120SOL    HW1 3315   3.324   0.923   2.065
 1120SOL    HW2 3316   3.435   1.017   2.138
 1121SOL     OW 3317   3.049   1.792   3.478
 1121SOL    HW1 3318   3.073   1.852   3.402
 1121SOL    HW2 3319   3.056   1.697   3.448
 1122SOL     OW 3320   2.179   0.251   3.663
 1122SOL    HW1 3321   2.250   0.322   3.669
 1122SOL    HW2 3322   2.091   0.290   3.691
 1123SOL     OW 3323   3.328   1.417   2.815
 1123SOL    HW1 3324   3.269   1.423   2.895
 1123SOL    HW2 3325   3.313   1.329   2.769
 1124SOL     OW 3326   3.529   1.714   2.434
 1124SOL    HW1 3327   3.488   1.691   2.346
 1124SOL    HW2 3328   3.511   1.640   2.499
 1125SOL     OW 3329   2.460   0.729   2.132
 1125SOL    HW1 3330   2.484   0.798   2.064
 1125SOL    HW2 3331   2.382   0.762   2.186
 1126SOL     OW 3332   3.143   0.345   2.806
 1126SOL    HW1 3333   3.057   0.295   2.793
 1126SOL    HW2 3334   3.205   0.291   2.862
 1127SOL     OW 3335   3.438   1.662   2.169
 1127SOL    HW1 3336   3.527   1.708   2.172
 1127SOL    HW2 3337   3.417   1.638   2.074
 1128SOL     OW 3338   2.669   0.605   3.327
 1128SOL    HW1 3339   2.622   0.602   3.416
 1128SOL    HW2 3340   2.618   0.550   3.261
 1129SOL     OW 3341   3.256   0.469   3.536
 1129SOL    HW1 3342   3.236   0.512   3.624
 1129SOL    HW2 3343   3.334   0.407   3.545
 1130SOL     OW 3344   2.835   0.890   3.434
 1130SOL    HW1 3345   2.881   0.806   3.405
 1130SOL    HW2 3346   2.779   0.924   3.359
 1131SOL     OW 3347   2.853   0.410   3.104
 1131SOL    HW1 3348   2.776   0.444   3.158
 1131SOL    HW2 3349   2.819   0.359   3.025
 1132SOL     OW 3350   2.903   0.701   2.291
 1132SOL    HW1 3351   2.929   0.697   2.387
 1132SOL    HW2 3352   2.818   0.650   2.277
 1133SOL     OW 3353   1.938   0.811   2.651
 1133SOL    HW1 3354   2.037   0.799   2.660
 1133SOL    HW2 3355   1.914   0.906   2.672
 1134SOL     OW 3356   1.992   1.821   3.433
 1134SOL    HW1 3357   1.982   1.806   3.532
 1134SOL    HW2 3358   1.906   1.857   3.397
 1135SOL     OW 3359   2.727   0.348   2.057
 1135SOL    HW1 3360   2.786   0.411   2.008
 1135SOL    HW2 3361   2.746   0.254   2.028
 1136SOL     OW 3362   3.581   0.585   3.693
 1136SOL    HW1 3363   3.555   0.674   3.657
 1136SOL    HW2 3364   3.579   0.517   3.620
 1137SOL     OW 3365   3.224   1.144   2.407
 1137SOL    HW1 3366   3.307   1.115   2.359
 1137SOL    HW2 3367   3.175   1.211   2.351
 1138SOL     OW 3368   2.412   0.196   2.747
 1138SOL    HW1 3369   2.407   0.191   2.847
 1138SOL    HW2 3370   2.414   0.292   2.718
 1139SOL     OW 3371   2.870   1.456   2.339
 1139SOL    HW1 3372   2.824   1.528   2.287
 1139SOL    HW2 3373   2.866   1.476   2.437
 1140SOL     OW 3374   2.213   1.801   2.715
 1140SOL    HW1 3375   2.263   1.715   2.721
 1140SOL    HW2 3376   2.278   1.878   2.712
 1141SOL     OW 3377   3.657   1.066   2.735
 1141SOL    HW1 3378   3.595   1.051   2.659
 1141SOL    HW2 3379   3.605   1.077   2.820
 1142SOL     OW 3380   3.089   1.550   3.368
 1142SOL    HW1 3381   3.095   1.473   3.432
 1142SOL    HW2 3382   3.037   1.524   3.288
 1143SOL     OW 3383   2.183   0.943   2.104
 1143SOL    HW1 3384   2.265   0.982   2.062
 1143SOL    HW2 3385   2.156   0.861   2.055
 1144SOL     OW 3386   3.320   0.735   2.590
 1144SOL    HW1 3387   3.315   0.670   2.665
 1144SOL    HW2 3388   3.400   0.794   2.603
 1145SOL     OW 3389   2.323   1.266   3.589
 1145SOL    HW1 3390   2.273   1.267   3.503
 1145SOL    HW2 3391   2.260   1.248   3.665
 1146SOL     OW 3392   2.973   1.776   2.099
 1146SOL    HW1 3393   2.913   1.714   2.149
 1146SOL    HW2 3394   3.004   1.732   2.014
 1147SOL     OW 3395   2.064   0.285   3.360
 1147SOL    HW1 3396   1.984   0.345   3.347
 1147SOL    HW2 3397   2.054   0.236   3.446
 1148SOL     OW 3398   3.494   1.377   1.943
 1148SOL    HW1 3399   3.462   1.471   1.933
 1148SOL    HW2 3400   3.418   1.314   1.931
 1149SOL     OW 3401   3.262   0.107   2.288
 1149SOL    HW1 3402   3.238   0.070   2.198
 1149SOL    HW2 3403   3.361   0.123   2.292
 1150SOL     OW 3404   2.111   1.785   3.103
 1150SOL    HW1 3405   2.168   1.720   3.153
 1150SOL    HW2 3406   2.095   1.752   3.010
 1151SOL     OW 3407   2.802   1.698   2.766
 1151SOL    HW1 3408   2.882   1.641   2.787
 1151SOL    HW2 3409   2.753   1.658   2.689
 1152SOL     OW 3410   2.244   0.700   2.342
 1152SOL    HW1 3411   2.289   0.610   2.339
 1152SOL    HW2 3412   2.150   0.689   2.375
 1153SOL     OW 3413   3.409   0.222   3.591
 1153SOL    HW1 3414   3.404   0.259   3.683
 1153SOL    HW2 3415   3.337   0.153   3.579
 1154SOL     OW 3416   2.476   0.122   1.979
 1154SOL    HW1 3417   2.574   0.100   1.986
 1154SOL    HW2 3418   2.445   0.105   1.886
 1155SOL     OW 3419   2.643   0.264   3.611
 1155SOL    HW1 3420   2.710   0.203   3.654
 1155SOL    HW2 3421   2.570   0.283   3.676
 1156SOL     OW 3422   2.750   1.514   3.057
 1156SOL    HW1 3423   2.727   1.489   2.963
 1156SOL    HW2 3424   2.811   1.445   3.096
 1157SOL     OW 3425   3.213   0.590   3.295
 1157SOL    HW1 3426   3.241   0.547   3.380
 1157SOL    HW2 3427   3.238   0.686   3.296
 1158SOL     OW 3428   2.665   1.402   2.786
 1158SOL    HW1 3429   2.755   1.416   2.744
 1158SOL    HW2 3430   2.594   1.404   2.715
 1159SOL     OW 3431   2.784   0.503   2.761
 1159SOL    HW1 3432   2.759   0.494   2.665
 1159SOL    HW2 3433   2.832   0.421   2.792
 1160SOL     OW 3434   2.401   0.064   2.374
 1160SOL    HW1 3435   2.320   0.065   2.432
 1160SOL    HW2 3436   2.404   0.147   2.319
 1161SOL     OW 3437   3.296   1.188   1.903
 1161SOL    HW1 3438   3.328   1.112   1.960
 1161SOL    HW2 3439   3.204   1.215   1.933
 1162SOL     OW 3440   2.159   0.035   2.033
 1162SOL    HW1 3441   2.208   0.119   2.012
 1162SOL    HW2 3442   2.221  -0.030   2.078
 1163SOL     OW 3443   2.797   0.236   2.342
 1163SOL    HW1 3444   2.749   0.277   2.264
 1163SOL    HW2 3445   2.896   0.234   2.323
 1164SOL     OW 3446   2.938   0.683   3.326
 1164SOL    HW1 3447   2.858   0.622   3.329
 1164SOL    HW2 3448   3.019   0.630   3.302
 1165SOL     OW 3449   3.089   1.570   2.655
 1165SOL    HW1 3450   3.110   1.644   2.590
 1165SOL    HW2 3451   3.157   1.570   2.728
 1166SOL     OW 3452   2.321   1.152   2.603
 1166SOL    HW1 3453   2.250   1.125   2.668
 1166SOL    HW2 3454   2.295   1.124   2.510
 1167SOL     OW 3455   3.133   1.797   2.453
 1167SOL    HW1 3456   3.177   1.861   2.389
 1167SOL    HW2 3457   3.083   1.849   2.523
 1168SOL     OW 3458   2.894   0.549   1.878
 1168SOL    HW1 3459   2.853   0.631   1.839
 1168SOL    HW2 3460   2.958   0.575   1.951
 1169SOL     OW 3461   1.940   0.556   3.248
 1169SOL    HW1 3462   2.032   0.555   3.207
 1169SOL    HW2 3463   1.934   0.630   3.315
 1170SOL     OW 3464   2.423   0.222   3.009
 1170SOL    HW1 3465   2.461   0.138   3.046
 1170SOL    HW2 3466   2.335   0.241   3.053
 1171SOL     OW 3467   2.728   0.454   2.504
 1171SOL    HW1 3468   2.696   0.526   2.442
 1171SOL    HW2 3469   2.752   0.373   2.451
 1172SOL     OW 3470   2.879   0.039   2.615
 1172SOL    HW1 3471   2.807   0.044   2.546
 1172SOL    HW2 3472   2.855  -0.030   2.684
 1173SOL     OW 3473   3.291   1.173   2.729
 1173SOL    HW1 3474   3.236   1.089   2.722
 1173SOL    HW2 3475   3.317   1.202   2.637
 1174SOL     OW 3476   3.328   0.590   2.854
 1174SOL    HW1 3477   3.298   0.495   2.861
 1174SOL    HW2 3478   3.401   0.606   2.920
 1175SOL     OW 3479   3.719   0.833   2.239
 1175SOL    HW1 3480   3.761   0.769   2.303
 1175SOL    HW2 3481   3.681   0.782   2.161
 1176SOL     OW 3482   2.350   1.385   2.036
 1176SOL    HW1 3483   2.263   1.370   2.083
 1176SOL    HW2 3484   2.333   1.411   1.941
 1177SOL     OW 3485   3.526   1.280   2.519
 1177SOL    HW1 3486   3.625   1.288   2.533
 1177SOL    HW2 3487   3.481   1.364   2.550
 1178SOL     OW 3488   3.252   0.575   1.940
 1178SOL    HW1 3489   3.198   0.554   2.021
 1178SOL    HW2 3490   3.343   0.534   1.949
 1179SOL     OW 3491   2.389   0.256   2.190
 1179SOL    HW1 3492   2.416   0.197   2.115
 1179SOL    HW2 3493   2.389   0.351   2.159
 1180SOL     OW 3494   3.616   1.223   3.450
 1180SOL    HW1 3495   3.707   1.184   3.437
 1180SOL    HW2 3496   3.624   1.319   3.474
 1181SOL     OW 3497   2.926   1.347   3.202
 1181SOL    HW1 3498   2.846   1.324   3.257
 1181SOL    HW2 3499   3.009   1.321   3.251
 1182SOL     OW 3500   3.454   1.629   3.487
 1182SOL    HW1 3501   3.481   1.663   3.397
 1182SOL    HW2 3502   3.533   1.591   3.533
 1183SOL     OW 3503   2.973   1.195   2.962
 1183SOL    HW1 3504   2.933   1.239   3.043
 1183SOL    HW2 3505   2.932   1.232   2.879
 1184SOL     OW 3506   3.500   1.099   2.941
 1184SOL    HW1 3507   3.505   1.180   3.000
 1184SOL    HW2 3508   3.414   1.101   2.890
 1185SOL     OW 3509   2.777   0.089   3.264
 1185SOL    HW1 3510   2.802   0.069   3.169
 1185SOL    HW2 3511   2.849   0.145   3.306
 1186SOL     OW 3512   2.842   1.116   3.581
 1186SOL    HW1 3513   2.743   1.122   3.591
 1186SOL    HW2 3514   2.865   1.036   3.525
 1187SOL     OW 3515   2.567   1.050   2.230
 1187SOL    HW1 3516   2.553   1.057   2.329
 1187SOL    HW2 3517   2.651   0.999   2.212
 1188SOL     OW 3518   2.272   0.813   3.113
 1188SOL    HW1 3519   2.358   0.825   3.163
 1188SOL    HW2 3520   2.230   0.726   3.140
 1189SOL     OW 3521   3.136   0.386   3.124
 1189SOL    HW1 3522   3.157   0.460   3.188
 1189SOL    HW2 3523   3.047   0.403   3.081
 1190SOL     OW 3524   1.926   1.564   3.193
 1190SOL    HW1 3525   1.880   1.646   3.159
 1190SOL    HW2 3526   2.024   1.583   3.202
 1191SOL     OW 3527   2.229   1.100   2.363
 1191SOL    HW1 3528   2.222   1.183   2.307
 1191SOL    HW2 3529   2.233   1.020   2.303
 1192SOL     OW 3530   2.428   0.537   2.727
 1192SOL    HW1 3531   2.440   0.603   2.653
 1192SOL    HW2 3532   2.474   0.571   2.810
 1193SOL     OW 3533   3.114   1.348   2.250
 1193SOL    HW1 3534   3.164   1.425   2.290
 1193SOL    HW2 3535   3.019   1.350   2.282
 1194SOL     OW 3536   3.134   1.445   3.004
 1194SOL    HW1 3537   3.181   1.458   3.091
 1194SOL    HW2 3538   3.068   1.371   3.013
 1195SOL     OW 3539   3.444   0.639   2.334
 1195SOL    HW1 3540   3.413   0.700   2.407
 1195SOL    HW2 3541   3.494   0.691   2.265
 1196SOL     OW 3542   2.216   1.510   3.191
 1196SOL    HW1 3543   2.195   1.466   3.104
 1196SOL    HW2 3544   2.313   1.536   3.194
 1197SOL     OW 3545   2.264   0.751   3.460
 1197SOL    HW1 3546   2.332   0.806   3.413
 1197SOL    HW2 3547   2.304   0.663   3.487
 1198SOL     OW 3548   3.449   0.779   3.532
 1198SOL    HW1 3549   3.357   0.817   3.527
 1198SOL    HW2 3550   3.509   0.826   3.467
 1199SOL     OW 3551   2.875   0.105   3.632
 1199SOL    HW1 3552   2.881   0.190   3.580
 1199SOL    HW2 3553   2.907   0.029   3.575
 1200SOL     OW 3554   2.366   0.050   3.602
 1200SOL    HW1 3555   2.324  -0.007   3.532
 1200SOL    HW2 3556   2.300   0.119   3.634
 1201SOL     OW 3557   2.435   0.870   2.891
 1201SOL    HW1 3558   2.479   0.959   2.882
 1201SOL    HW2 3559   2.372   0.870   2.968
 1202SOL     OW 3560   3.222   0.862   2.907
 1202SOL    HW1 3561   3.147   0.862   2.841
 1202SOL    HW2 3562   3.259   0.770   2.916
 1203SOL     OW 3563   3.071   0.525   2.137
 1203SOL    HW1 3564   3.084   0.441   2.191
 1203SOL    HW2 3565   3.042   0.599   2.197
 1204SOL     OW 3566   2.169   0.213   3.093
 1204SOL    HW1 3567   2.146   0.250   3.183
 1204SOL    HW2 3568   2.139   0.118   3.087
 1205SOL     OW 3569   1.899   1.310   3.144
 1205SOL    HW1 3570   1.952   1.261   3.212
 1205SOL    HW2 3571   1.921   1.408   3.149
 1206SOL     OW 3572   2.594   0.634   2.926
 1206SOL    HW1 3573   2.653   0.608   2.850
 1206SOL    HW2 3574   2.566   0.730   2.915
 1207SOL     OW 3575   3.590   0.935   3.716
 1207SOL    HW1 3576   3.544   0.928   3.627
 1207SOL    HW2 3577   3.528   0.979   3.782
 1208SOL     OW 3578   2.169   0.063   2.480
 1208SOL    HW1 3579   2.158   0.157   2.513
 1208SOL    HW2 3580   2.164   0.000   2.557
 1209SOL     OW 3581   3.484   0.367   2.236
 1209SOL    HW1 3582   3.486   0.291   2.300
 1209SOL    HW2 3583   3.436   0.444   2.276
 1210SOL     OW 3584   2.885   0.766   2.828
 1210SOL    HW1 3585   2.900   0.787   2.924
 1210SOL    HW2 3586   2.855   0.671   2.819
 1211SOL     OW 3587   2.842   1.573   3.562
 1211SOL    HW1 3588   2.822   1.617   3.474
 1211SOL    HW2 3589   2.881   1.482   3.546
 1212SOL     OW 3590   3.721   1.518   3.467
 1212SOL    HW1 3591   3.735   1.545   3.372
 1212SOL    HW2 3592   3.804   1.540   3.520
 1213SOL     OW 3593   2.212   0.898   3.666
 1213SOL    HW1 3594   2.288   0.942   3.714
 1213SOL    HW2 3595   2.247   0.851   3.584
 1214SOL     OW 3596   3.402   0.274   1.987
 1214SOL    HW1 3597   3.341   0.199   2.010
 1214SOL    HW2 3598   3.424   0.326   2.070
 1215SOL     OW 3599   3.165   0.838   1.904
 1215SOL    HW1 3600   3.199   0.745   1.919
 1215SOL    HW2 3601   3.183   0.865   1.809
 1216SOL     OW 3602   2.930   1.333   2.711
 1216SOL    HW1 3603   2.937   1.249   2.656
 1216SOL    HW2 3604   2.992   1.402   2.675
 1217SOL     OW 3605   2.181   0.810   2.811
 1217SOL    HW1 3606   2.274   0.846   2.816
 1217SOL    HW2 3607   2.175   0.725   2.863
 1218SOL     OW 3608   2.201   0.509   2.868
 1218SOL    HW1 3609   2.149   0.426   2.851
 1218SOL    HW2 3610   2.278   0.514   2.804
 1219SOL     OW 3611   3.000   0.380   3.540
 1219SOL    HW1 3612   2.955   0.443   3.604
 1219SOL    HW2 3613   3.093   0.411   3.523
 1220SOL     OW 3614   3.022   0.207   3.339
 1220SOL    HW1 3615   3.022   0.271   3.416
 1220SOL    HW2 3616   3.050   0.255   3.256
 1221SOL     OW 3617   1.870   1.326   2.062
 1221SOL    HW1 3618   1.777   1.347   2.031
 1221SOL    HW2 3619   1.880   1.227   2.075
 1222SOL     OW 3620   1.950   1.801   2.789
 1222SOL    HW1 3621   1.908   1.715   2.762
 1222SOL    HW2 3622   2.044   1.804   2.755
 1223SOL     OW 3623   2.366   1.568   2.772
 1223SOL    HW1 3624   2.432   1.642   2.781
 1223SOL    HW2 3625   2.410   1.489   2.730
 1224SOL     OW 3626   2.864   0.796   3.100
 1224SOL    HW1 3627   2.905   0.764   3.186
 1224SOL    HW2 3628   2.768   0.769   3.097
 1225SOL     OW 3629   1.902   0.544   2.976
 1225SOL    HW1 3630   1.987   0.511   2.935
 1225SOL    HW2 3631   1.915   0.559   3.074
 1226SOL     OW 3632   2.051   0.520   3.584
 1226SOL    HW1 3633   2.110   0.480   3.514
 1226SOL    HW2 3634   1.993   0.591   3.543
 1227SOL     OW 3635   3.231   0.950   3.522
 1227SOL    HW1 3636   3.270   1.039   3.542
 1227SOL    HW2 3637   3.241   0.930   3.425
 1228SOL     OW 3638   2.677   0.572   2.187
 1228SOL    HW1 3639   2.684   0.483   2.141
 1228SOL    HW2 3640   2.583   0.606   2.179
 1229SOL     OW 3641   3.519   0.604   3.068
 1229SOL    HW1 3642   3.481   0.535   3.130
 1229SOL    HW2 3643   3.601   0.568   3.024
 1230SOL     OW 3644   2.114   1.564   3.606
 1230SOL    HW1 3645   2.084   1.621   3.682
 1230SOL    HW2 3646   2.107   1.467   3.632
 1231SOL     OW 3647   2.533   0.464   3.131
 1231SOL    HW1 3648   2.499   0.375   3.101
 1231SOL    HW2 3649   2.559   0.518   3.051
 1232SOL     OW 3650   2.792   1.678   3.327
 1232SOL    HW1 3651   2.768   1.660   3.232
 1232SOL    HW2 3652   2.822   1.772   3.337
 1233SOL     OW 3653   2.335   0.500   2.053
 1233SOL    HW1 3654   2.396   0.580   2.057
 1233SOL    HW2 3655   2.240   0.531   2.060
 1234SOL     OW 3656   2.021   1.137   3.328
 1234SOL    HW1 3657   2.043   1.076   3.404
 1234SOL    HW2 3658   2.031   1.088   3.242
 1235SOL     OW 3659   3.209   1.059   3.096
 1235SOL    HW1 3660   3.233   0.996   3.022
 1235SOL    HW2 3661   3.119   1.099   3.078
 1236SOL     OW 3662   3.164   0.855   2.171
 1236SOL    HW1 3663   3.078   0.824   2.213
 1236SOL    HW2 3664   3.160   0.841   2.072
 1237SOL     OW 3665   3.621   1.747   3.016
 1237SOL    HW1 3666   3.682   1.777   2.943
 1237SOL    HW2 3667   3.583   1.658   2.994
 1238SOL     OW 3668   3.114   1.731   2.990
 1238SOL    HW1 3669   3.198   1.736   2.936
 1238SOL    HW2 3670   3.091   1.635   3.008
 1239SOL     OW 3671   1.945   1.258   2.884
 1239SOL    HW1 3672   1.940   1.257   2.984
 1239SOL    HW2 3673   1.862   1.217   2.846
 1240SOL     OW 3674   2.550   1.662   3.578
 1240SOL    HW1 3675   2.494   1.743   3.587
 1240SOL    HW2 3676   2.602   1.666   3.492
 1241SOL     OW 3677   3.588   0.135   2.385
 1241SOL    HW1 3678   3.661   0.118   2.318
 1241SOL    HW2 3679   3.557   0.048   2.423
 1242SOL     OW 3680   3.250   1.573   2.339
 1242SOL    HW1 3681   3.317   1.585   2.265
 1242SOL    HW2 3682   3.210   1.662   2.362
 1243SOL     OW 3683   1.992   1.794   3.713
 1243SOL    HW1 3684   1.951   1.720   3.766
 1243SOL    HW2 3685   2.056   1.845   3.771
 1244SOL     OW 3686   3.142   0.927   2.534
 1244SOL    HW1 3687   3.202   0.846   2.536
 1244SOL    HW2 3688   3.182   0.996   2.474
 1245SOL     OW 3689   2.692   1.273   3.284
 1245SOL    HW1 3690   2.687   1.306   3.379
 1245SOL    HW2 3691   2.606   1.292   3.238
 1246SOL     OW 3692   2.534   1.616   2.016
 1246SOL    HW1 3693   2.543   1.626   1.917
 1246SOL    HW2 3694   2.494   1.527   2.037
 1247SOL     OW 3695   3.512   1.720   3.256
 1247SOL    HW1 3696   3.565   1.730   3.172
 1247SOL    HW2 3697   3.485   1.810   3.290
 1248SOL     OW 3698   3.703   0.175   2.825
 1248SOL    HW1 3699   3.742   0.090   2.789
 1248SOL    HW2 3700   3.605   0.177   2.806
 1249SOL     OW 3701   2.125   0.326   2.582
 1249SOL    HW1 3702   2.046   0.377   2.548
 1249SOL    HW2 3703   2.116   0.311   2.680
 1250SOL     OW 3704   3.056   1.612   1.893
 1250SOL    HW1 3705   3.062   1.519   1.930
 1250SOL    HW2 3706   2.997   1.612   1.813
 1251SOL     OW 3707   2.684   1.002   3.234
 1251SOL    HW1 3708   2.724   1.001   3.142
 1251SOL    HW2 3709   2.694   1.094   3.274
 1252SOL     OW 3710   2.778   0.910   2.153
 1252SOL    HW1 3711   2.841   0.948   2.085
 1252SOL    HW2 3712   2.818   0.827   2.192
 1253SOL     OW 3713   3.366   1.607   1.906
 1253SOL    HW1 3714   3.274   1.644   1.913
 1253SOL    HW2 3715   3.404   1.627   1.816
 1254SOL     OW 3716   2.234   1.288   3.352
 1254SOL    HW1 3717   2.221   1.381   3.318
 1254SOL    HW2 3718   2.150   1.236   3.339
 1255SOL     OW 3719   3.476   1.292   3.151
 1255SOL    HW1 3720   3.536   1.295   3.231
 1255SOL    HW2 3721   3.401   1.356   3.164
 1256SOL     OW 3722   2.901   1.098   2.558
 1256SOL    HW1 3723   2.831   1.051   2.612
 1256SOL    HW2 3724   2.960   1.030   2.515
 1257SOL     OW 3725   2.876   0.236   2.833
 1257SOL    HW1 3726   2.868   0.200   2.740
 1257SOL    HW2 3727   2.874   0.160   2.898
 1258SOL     OW 3728   2.452   1.487   2.353
 1258SOL    HW1 3729   2.494   1.429   2.283
 1258SOL    HW2 3730   2.408   1.566   2.309
 1259SOL     OW 3731   3.571   0.385   3.243
 1259SOL    HW1 3732   3.644   0.454   3.247
 1259SOL    HW2 3733   3.599   0.310   3.184
 1260SOL     OW 3734   2.117   1.348   2.152
 1260SOL    HW1 3735   2.021   1.349   2.125
 1260SOL    HW2 3736   2.129   1.401   2.236
 1261SOL     OW 3737   1.967   1.013   3.588
 1261SOL    HW1 3738   1.890   0.980   3.642
 1261SOL    HW2 3739   2.052   0.983   3.630
 1262SOL     OW 3740   2.534   0.203   3.351
 1262SOL    HW1 3741   2.624   0.187   3.311
 1262SOL    HW2 3742   2.542   0.208   3.450
 1263SOL     OW 3743   1.937   0.345   1.895
 1263SOL    HW1 3744   1.845   0.317   1.866
 1263SOL    HW2 3745   1.968   0.422   1.839
 1264SOL     OW 3746   3.302   0.856   3.260
 1264SOL    HW1 3747   3.245   0.908   3.197
 1264SOL    HW2 3748   3.398   0.868   3.236
 1265SOL     OW 3749   1.934   0.166   2.180
 1265SOL    HW1 3750   1.917   0.249   2.126
 1265SOL    HW2 3751   2.024   0.129   2.158
 1266SOL     OW 3752   3.045   1.335   1.981
 1266SOL    HW1 3753   2.946   1.324   1.983
 1266SOL    HW2 3754   3.079   1.350   2.074
 1267SOL     OW 3755   2.475   0.842   3.293
 1267SOL    HW1 3756   2.531   0.923   3.276
 1267SOL    HW2 3757   2.534   0.762   3.296
 1268SOL     OW 3758   3.355   1.767   2.821
 1268SOL    HW1 3759   3.388   1.831   2.752
 1268SOL    HW2 3760   3.421   1.761   2.896
 1269SOL     OW 3761   2.578   0.565   3.570
 1269SOL    HW1 3762   2.597   0.630   3.644
 1269SOL    HW2 3763   2.638   0.485   3.579
 1270SOL     OW 3764   3.312   1.220   3.495
 1270SOL    HW1 3765   3.303   1.210   3.594
 1270SOL    HW2 3766   3.408   1.213   3.469
 1271SOL     OW 3767   2.252   1.741   3.422
 1271SOL    HW1 3768   2.161   1.782   3.420
 1271SOL    HW2 3769   2.245   1.647   3.454
 1272SOL     OW 3770   3.536   0.883   3.116
 1272SOL    HW1 3771   3.509   0.794   3.079
 1272SOL    HW2 3772   3.537   0.951   3.043
 1273SOL     OW 3773   3.087   0.325   2.311
 1273SOL    HW1 3774   3.152   0.251   2.300
 1273SOL    HW2 3775   3.107   0.375   2.395
 1274SOL     OW 3776   2.456   0.745   2.514
 1274SOL    HW1 3777   2.506   0.830   2.495
 1274SOL    HW2 3778   2.368   0.747   2.466
 1275SOL     OW 3779   3.639   0.342   3.504
 1275SOL    HW1 3780   3.622   0.373   3.410
 1275SOL    HW2 3781   3.555   0.305   3.542
 1276SOL     OW 3782   3.592   0.934   3.379
 1276SOL    HW1 3783   3.630   1.025   3.394
 1276SOL    HW2 3784   3.584   0.917   3.280
 1277SOL     OW 3785   2.721   1.374   1.878
 1277SOL    HW1 3786   2.675   1.389   1.966
 1277SOL    HW2 3787   2.765   1.459   1.848
 1278SOL     OW 3788   2.523   1.790   2.815
 1278SOL    HW1 3789   2.477   1.878   2.802
 1278SOL    HW2 3790   2.622   1.802   2.808
 1279SOL     OW 3791   2.721   0.956   2.723
 1279SOL    HW1 3792   2.775   0.887   2.771
 1279SOL    HW2 3793   2.689   1.025   2.789
 1280SOL     OW 3794   2.945   0.984   1.949
 1280SOL    HW1 3795   2.922   1.037   1.867
 1280SOL    HW2 3796   3.026   0.928   1.930
 1281SOL     OW 3797   3.723   1.569   2.713
 1281SOL    HW1 3798   3.652   1.557   2.643
 1281SOL    HW2 3799   3.724   1.490   2.773
 1282SOL     OW 3800   2.083   1.314   3.706
 1282SOL    HW1 3801   2.018   1.241   3.685
 1282SOL    HW2 3802   2.087   1.328   3.804
 1283SOL     OW 3803   1.941   1.240   2.515
 1283SOL    HW1 3804   1.940   1.193   2.603
 1283SOL    HW2 3805   2.023   1.212   2.464
 1284SOL     OW 3806   2.534   1.391   3.486
 1284SOL    HW1 3807   2.456   1.341   3.524
 1284SOL    HW2 3808   2.531   1.486   3.517
 1285SOL     OW 3809   3.686   0.192   3.089
 1285SOL    HW1 3810   3.682   0.102   3.133
 1285SOL    HW2 3811   3.689   0.181   2.990
 1286SOL     OW 3812   2.290   0.424   2.382
 1286SOL    HW1 3813   2.320   0.352   2.320
 1286SOL    HW2 3814   2.251   0.384   2.465
 1287SOL     OW 3815   3.567   1.487   2.966
 1287SOL    HW1 3816   3.474   1.462   2.939
 1287SOL    HW2 3817   3.593   1.437   3.048
 1288SOL     OW 3818   2.179   0.547   3.142
 1288SOL    HW1 3819   2.217   0.488   3.214
 1288SOL    HW2 3820   2.219   0.521   3.054
 1289SOL     OW 3821   2.674   1.586   2.549
 1289SOL    HW1 3822   2.706   1.596   2.455
 1289SOL    HW2 3823   2.595   1.524   2.551
 1290SOL     OW 3824   3.286   0.214   2.974
 1290SOL    HW1 3825   3.338   0.149   3.029
 1290SOL    HW2 3826   3.237   0.277   3.035
 1291SOL     OW 3827   2.863   0.034   3.016
 1291SOL    HW1 3828   2.800  -0.038   2.985
 1291SOL    HW2 3829   2.956  -0.002   3.016
 1292SOL     OW 3830   2.632   1.330   2.163
 1292SOL    HW1 3831   2.586   1.243   2.180
 1292SOL    HW2 3832   2.723   1.327   2.204
 1293SOL     OW 3833   2.480   1.567   3.146
 1293SOL    HW1 3834   2.475   1.649   3.203
 1293SOL    HW2 3835   2.569   1.564   3.101
 1294SOL     OW 3836   3.214   0.052   2.030
 1294SOL    HW1 3837   3.249   0.011   1.946
 1294SOL    HW2 3838   3.124   0.014   2.050
 1295SOL     OW 3839   3.162   0.453   2.553
 1295SOL    HW1 3840   3.103   0.533   2.557
 1295SOL    HW2 3841   3.177   0.418   2.646
 1296SOL     OW 3842   3.455   0.221   2.744
 1296SOL    HW1 3843   3.371   0.220   2.798
 1296SOL    HW2 3844   3.457   0.304   2.688
 1297SOL     OW 3845   1.901   1.077   2.162
 1297SOL    HW1 3846   2.000   1.066   2.153
 1297SOL    HW2 3847   1.861   0.991   2.194
 1298SOL     OW 3848   2.737   1.646   2.199
 1298SOL    HW1 3849   2.660   1.611   2.145
 1298SOL    HW2 3850   2.705   1.717   2.261
 1299SOL     OW 3851   2.092   2.490   0.113
 1299SOL    HW1 3852   1.999   2.488   0.150
 1299SOL    HW2 3853   2.093   2.451   0.021
 1300SOL     OW 3854   2.087   2.137   0.996
 1300SOL    HW1 3855   2.122   2.120   1.088
 1300SOL    HW2 3856   1.999   2.092   0.984
 1301SOL     OW 3857   1.881   2.230   0.647
 1301SOL    HW1 3858   1.799   2.273   0.686
 1301SOL    HW2 3859   1.853   2.157   0.584
 1302SOL     OW 3860   2.431   3.137   1.165
 1302SOL    HW1 3861   2.338   3.130   1.128
 1302SOL    HW2 3862   2.442   3.226   1.209
 1303SOL     OW 3863   3.417   3.373   0.703
 1303SOL    HW1 3864   3.360   3.357   0.784
 1303SOL    HW2 3865   3.358   3.383   0.623
 1304SOL     OW 3866   2.997   2.565   0.717
 1304SOL    HW1 3867   3.054   2.643   0.692
 1304SOL    HW2 3868   2.937   2.591   0.793
 1305SOL     OW 3869   3.617   2.469   0.231
 1305SOL    HW1 3870   3.605   2.456   0.132
 1305SOL    HW2 3871   3.587   2.388   0.280
 1306SOL     OW 3872   2.630   3.006   1.023
 1306SOL    HW1 3873   2.552   3.023   1.083
 1306SOL    HW2 3874   2.664   3.093   0.987
 1307SOL     OW 3875   2.712   2.660   1.823
 1307SOL    HW1 3876   2.708   2.736   1.888
 1307SOL    HW2 3877   2.734   2.696   1.732
 1308SOL     OW 3878   2.547   2.874   0.665
 1308SOL    HW1 3879   2.616   2.858   0.735
 1308SOL    HW2 3880   2.474   2.931   0.703
 1309SOL     OW 3881   2.548   3.023   1.803
 1309SOL    HW1 3882   2.608   3.102   1.817
 1309SOL    HW2 3883   2.462   3.054   1.762
 1310SOL     OW 3884   2.197   3.297   1.061
 1310SOL    HW1 3885   2.119   3.266   1.008
 1310SOL    HW2 3886   2.255   3.355   1.004
 1311SOL     OW 3887   3.322   3.367   1.339
 1311SOL    HW1 3888   3.346   3.461   1.365
 1311SOL    HW2 3889   3.306   3.313   1.421
 1312SOL     OW 3890   2.300   2.254   1.499
 1312SOL    HW1 3891   2.382   2.198   1.508
 1312SOL    HW2 3892   2.219   2.196   1.503
 1313SOL     OW 3893   3.465   2.309   0.737
 1313SOL    HW1 3894   3.391   2.355   0.687
 1313SOL    HW2 3895   3.516   2.377   0.790
 1314SOL     OW 3896   2.093   3.575   0.483
 1314SOL    HW1 3897   2.127   3.652   0.537
 1314SOL    HW2 3898   2.137   3.575   0.393
 1315SOL     OW 3899   2.989   3.203   1.690
 1315SOL    HW1 3900   3.036   3.203   1.778
 1315SOL    HW2 3901   2.941   3.116   1.679
 1316SOL     OW 3902   2.092   3.296   0.538
 1316SOL    HW1 3903   2.066   3.392   0.538
 1316SOL    HW2 3904   2.021   3.242   0.583
 1317SOL     OW 3905   2.102   2.953   0.886
 1317SOL    HW1 3906   2.116   2.869   0.938
 1317SOL    HW2 3907   2.047   3.017   0.941
 1318SOL     OW 3908   2.482   3.648   1.439
 1318SOL    HW1 3909   2.390   3.631   1.474
 1318SOL    HW2 3910   2.510   3.740   1.465
 1319SOL     OW 3911   2.468   2.826   0.123
 1319SOL    HW1 3912   2.475   2.910   0.069
 1319SOL    HW2 3913   2.514   2.839   0.211
 1320SOL     OW 3914   3.456   1.976   1.480
 1320SOL    HW1 3915   3.438   2.043   1.408
 1320SOL    HW2 3916   3.453   2.022   1.569
 1321SOL     OW 3917   1.984   2.505   0.563
 1321SOL    HW1 3918   1.939   2.417   0.580
 1321SOL    HW2 3919   1.983   2.559   0.647
 1322SOL     OW 3920   3.704   3.629   0.359
 1322SOL    HW1 3921   3.758   3.600   0.439
 1322SOL    HW2 3922   3.734   3.719   0.330
 1323SOL     OW 3923   1.889   3.458   0.117
 1323SOL    HW1 3924   1.870   3.362   0.138
 1323SOL    HW2 3925   1.856   3.516   0.192
 1324SOL     OW 3926   3.551   2.784   0.612
 1324SOL    HW1 3927   3.646   2.755   0.620
 1324SOL    HW2 3928   3.543   2.849   0.537
 1325SOL     OW 3929   3.503   2.970   0.432
 1325SOL    HW1 3930   3.589   2.972   0.380
 1325SOL    HW2 3931   3.517   3.017   0.520
 1326SOL     OW 3932   1.975   2.599   1.597
 1326SOL    HW1 3933   2.063   2.586   1.642
 1326SOL    HW2 3934   1.962   2.696   1.575
 1327SOL     OW 3935   2.475   3.227   0.726
 1327SOL    HW1 3936   2.426   3.140   0.735
 1327SOL    HW2 3937   2.452   3.270   0.639
 1328SOL     OW 3938   3.155   3.090   1.423
 1328SOL    HW1 3939   3.192   3.017   1.365
 1328SOL    HW2 3940   3.207   3.095   1.508
 1329SOL     OW 3941   2.671   1.866   0.502
 1329SOL    HW1 3942   2.711   1.957   0.493
 1329SOL    HW2 3943   2.571   1.874   0.508
 1330SOL     OW 3944   2.059   2.838   1.264
 1330SOL    HW1 3945   2.148   2.793   1.250
 1330SOL    HW2 3946   1.986   2.773   1.245
 1331SOL     OW 3947   3.387   2.861   0.190
 1331SOL    HW1 3948   3.324   2.785   0.203
 1331SOL    HW2 3949   3.435   2.879   0.276
 1332SOL     OW 3950   3.049   3.654   1.616
 1332SOL    HW1 3951   3.073   3.714   1.540
 1332SOL    HW2 3952   3.056   3.559   1.586
 1333SOL     OW 3953   2.179   2.113   1.801
 1333SOL    HW1 3954   2.250   2.184   1.807
 1333SOL    HW2 3955   2.091   2.152   1.829
 1334SOL     OW 3956   3.328   3.279   0.953
 1334SOL    HW1 3957   3.269   3.285   1.033
 1334SOL    HW2 3958   3.313   3.191   0.907
 1335SOL     OW 3959   3.529   3.576   0.572
 1335SOL    HW1 3960   3.488   3.553   0.484
 1335SOL    HW2 3961   3.511   3.502   0.637
 1336SOL     OW 3962   2.460   2.591   0.270
 1336SOL    HW1 3963   2.484   2.660   0.202
 1336SOL    HW2 3964   2.382   2.624   0.324
 1337SOL     OW 3965   3.143   2.207   0.944
 1337SOL    HW1 3966   3.057   2.157   0.931
 1337SOL    HW2 3967   3.205   2.153   1.000
 1338SOL     OW 3968   3.438   3.524   0.307
 1338SOL    HW1 3969   3.527   3.570   0.310
 1338SOL    HW2 3970   3.417   3.500   0.212
 1339SOL     OW 3971   2.669   2.467   1.465
 1339SOL    HW1 3972   2.622   2.464   1.554
 1339SOL    HW2 3973   2.618   2.412   1.399
 1340SOL     OW 3974   3.256   2.331   1.674
 1340SOL    HW1 3975   3.236   2.374   1.762
 1340SOL    HW2 3976   3.334   2.269   1.683
 1341SOL     OW 3977   2.835   2.752   1.572
 1341SOL    HW1 3978   2.881   2.668   1.543
 1341SOL    HW2 3979   2.779   2.786   1.497
 1342SOL     OW 3980   2.853   2.272   1.242
 1342SOL    HW1 3981   2.776   2.306   1.296
 1342SOL    HW2 3982   2.819   2.221   1.163
 1343SOL     OW 3983   2.903   2.563   0.429
 1343SOL    HW1 3984   2.929   2.559   0.525
 1343SOL    HW2 3985   2.818   2.512   0.415
 1344SOL     OW 3986   1.938   2.673   0.789
 1344SOL    HW1 3987   2.037   2.661   0.798
 1344SOL    HW2 3988   1.914   2.768   0.810
 1345SOL     OW 3989   1.992   3.683   1.571
 1345SOL    HW1 3990   1.982   3.668   1.670
 1345SOL    HW2 3991   1.906   3.719   1.535
 1346SOL     OW 3992   2.727   2.210   0.195
 1346SOL    HW1 3993   2.786   2.273   0.146
 1346SOL    HW2 3994   2.746   2.116   0.166
 1347SOL     OW 3995   3.581   2.447   1.831
 1347SOL    HW1 3996   3.555   2.536   1.795
 1347SOL    HW2 3997   3.579   2.379   1.758
 1348SOL     OW 3998   3.224   3.006   0.545
 1348SOL    HW1 3999   3.307   2.977   0.497
 1348SOL    HW2 4000   3.175   3.073   0.489
 1349SOL     OW 4001   2.412   2.058   0.885
 1349SOL    HW1 4002   2.407   2.053   0.985
 1349SOL    HW2 4003   2.414   2.154   0.856
 1350SOL     OW 4004   2.870   3.318   0.477
 1350SOL    HW1 4005   2.824   3.390   0.425
 1350SOL    HW2 4006   2.866   3.338   0.575
 1351SOL     OW 4007   2.213   3.663   0.853
 1351SOL    HW1 4008   2.263   3.577   0.859
 1351SOL    HW2 4009   2.278   3.740   0.850
 1352SOL     OW 4010   3.657   2.928   0.873
 1352SOL    HW1 4011   3.595   2.913   0.797
 1352SOL    HW2 4012   3.605   2.939   0.958
 1353SOL     OW 4013   3.089   3.412   1.506
 1353SOL    HW1 4014   3.095   3.335   1.570
 1353SOL    HW2 4015   3.037   3.386   1.426
 1354SOL     OW 4016   2.183   2.805   0.242
 1354SOL    HW1 4017   2.265   2.844   0.200
 1354SOL    HW2 4018   2.156   2.723   0.193
 1355SOL     OW 4019   3.320   2.597   0.728
 1355SOL    HW1 4020   3.315   2.532   0.803
 1355SOL    HW2 4021   3.400   2.656   0.741
 1356SOL     OW 4022   2.323   3.128   1.727
 1356SOL    HW1 4023   2.273   3.129   1.641
 1356SOL    HW2 4024   2.260   3.110   1.803
 1357SOL     OW 4025   2.973   3.638   0.237
 1357SOL    HW1 4026   2.913   3.576   0.287
 1357SOL    HW2 4027   3.004   3.594   0.152
 1358SOL     OW 4028   2.064   2.147   1.498
 1358SOL    HW1 4029   1.984   2.207   1.485
 1358SOL    HW2 4030   2.054   2.098   1.584
 1359SOL     OW 4031   3.494   3.239   0.081
 1359SOL    HW1 4032   3.462   3.333   0.071
 1359SOL    HW2 4033   3.418   3.176   0.069
 1360SOL     OW 4034   2.326   3.605   0.323
 1360SOL    HW1 4035   2.359   3.644   0.409
 1360SOL    HW2 4036   2.402   3.598   0.258
 1361SOL     OW 4037   3.262   1.969   0.426
 1361SOL    HW1 4038   3.238   1.932   0.336
 1361SOL    HW2 4039   3.361   1.985   0.430
 1362SOL     OW 4040   2.111   3.647   1.241
 1362SOL    HW1 4041   2.168   3.582   1.291
 1362SOL    HW2 4042   2.095   3.614   1.148
 1363SOL     OW 4043   2.802   3.560   0.904
 1363SOL    HW1 4044   2.882   3.503   0.925
 1363SOL    HW2 4045   2.753   3.520   0.827
 1364SOL     OW 4046   2.244   2.562   0.480
 1364SOL    HW1 4047   2.289   2.472   0.477
 1364SOL    HW2 4048   2.150   2.551   0.513
 1365SOL     OW 4049   3.409   2.084   1.729
 1365SOL    HW1 4050   3.404   2.121   1.821
 1365SOL    HW2 4051   3.337   2.015   1.717
 1366SOL     OW 4052   2.476   1.984   0.117
 1366SOL    HW1 4053   2.574   1.962   0.124
 1366SOL    HW2 4054   2.445   1.967   0.024
 1367SOL     OW 4055   2.643   2.126   1.749
 1367SOL    HW1 4056   2.710   2.065   1.792
 1367SOL    HW2 4057   2.570   2.145   1.814
 1368SOL     OW 4058   2.750   3.376   1.195
 1368SOL    HW1 4059   2.727   3.351   1.101
 1368SOL    HW2 4060   2.811   3.307   1.234
 1369SOL     OW 4061   3.213   2.452   1.433
 1369SOL    HW1 4062   3.241   2.409   1.518
 1369SOL    HW2 4063   3.238   2.548   1.434
 1370SOL     OW 4064   2.665   3.264   0.924
 1370SOL    HW1 4065   2.755   3.278   0.882
 1370SOL    HW2 4066   2.594   3.266   0.853
 1371SOL     OW 4067   2.784   2.365   0.899
 1371SOL    HW1 4068   2.759   2.356   0.803
 1371SOL    HW2 4069   2.832   2.283   0.930
 1372SOL     OW 4070   2.401   1.926   0.512
 1372SOL    HW1 4071   2.320   1.927   0.570
 1372SOL    HW2 4072   2.404   2.009   0.457
 1373SOL     OW 4073   3.296   3.050   0.041
 1373SOL    HW1 4074   3.328   2.974   0.098
 1373SOL    HW2 4075   3.204   3.077   0.071
 1374SOL     OW 4076   2.159   1.897   0.171
 1374SOL    HW1 4077   2.208   1.981   0.150
 1374SOL    HW2 4078   2.221   1.832   0.216
 1375SOL     OW 4079   2.797   2.098   0.480
 1375SOL    HW1 4080   2.749   2.139   0.402
 1375SOL    HW2 4081   2.896   2.096   0.461
 1376SOL     OW 4082   2.938   2.545   1.464
 1376SOL    HW1 4083   2.858   2.484   1.467
 1376SOL    HW2 4084   3.019   2.492   1.440
 1377SOL     OW 4085   3.089   3.432   0.793
 1377SOL    HW1 4086   3.110   3.506   0.728
 1377SOL    HW2 4087   3.157   3.432   0.866
 1378SOL     OW 4088   2.321   3.014   0.741
 1378SOL    HW1 4089   2.250   2.987   0.806
 1378SOL    HW2 4090   2.295   2.986   0.648
 1379SOL     OW 4091   3.133   3.659   0.591
 1379SOL    HW1 4092   3.177   3.723   0.527
 1379SOL    HW2 4093   3.083   3.711   0.661
 1380SOL     OW 4094   2.894   2.411   0.016
 1380SOL    HW1 4095   2.853   2.493  -0.023
 1380SOL    HW2 4096   2.958   2.437   0.089
 1381SOL     OW 4097   1.940   2.418   1.386
 1381SOL    HW1 4098   2.032   2.417   1.345
 1381SOL    HW2 4099   1.934   2.492   1.453
 1382SOL     OW 4100   2.423   2.084   1.147
 1382SOL    HW1 4101   2.461   2.000   1.184
 1382SOL    HW2 4102   2.335   2.103   1.191
 1383SOL     OW 4103   2.728   2.316   0.642
 1383SOL    HW1 4104   2.696   2.388   0.580
 1383SOL    HW2 4105   2.752   2.235   0.589
 1384SOL     OW 4106   2.879   1.901   0.753
 1384SOL    HW1 4107   2.807   1.906   0.684
 1384SOL    HW2 4108   2.855   1.832   0.822
 1385SOL     OW 4109   3.291   3.035   0.867
 1385SOL    HW1 4110   3.236   2.951   0.860
 1385SOL    HW2 4111   3.317   3.064   0.775
 1386SOL     OW 4112   3.328   2.452   0.992
 1386SOL    HW1 4113   3.298   2.357   0.999
 1386SOL    HW2 4114   3.401   2.468   1.058
 1387SOL     OW 4115   3.719   2.695   0.377
 1387SOL    HW1 4116   3.761   2.631   0.441
 1387SOL    HW2 4117   3.681   2.644   0.299
 1388SOL     OW 4118   2.350   3.247   0.174
 1388SOL    HW1 4119   2.263   3.232   0.221
 1388SOL    HW2 4120   2.333   3.273   0.079
 1389SOL     OW 4121   3.526   3.142   0.657
 1389SOL    HW1 4122   3.625   3.150   0.671
 1389SOL    HW2 4123   3.481   3.226   0.688
 1390SOL     OW 4124   3.252   2.437   0.078
 1390SOL    HW1 4125   3.198   2.416   0.159
 1390SOL    HW2 4126   3.343   2.396   0.087
 1391SOL     OW 4127   2.389   2.118   0.328
 1391SOL    HW1 4128   2.416   2.059   0.253
 1391SOL    HW2 4129   2.389   2.213   0.297
 1392SOL     OW 4130   3.616   3.085   1.588
 1392SOL    HW1 4131   3.707   3.046   1.575
 1392SOL    HW2 4132   3.624   3.181   1.612
 1393SOL     OW 4133   2.926   3.209   1.340
 1393SOL    HW1 4134   2.846   3.186   1.395
 1393SOL    HW2 4135   3.009   3.183   1.389
 1394SOL     OW 4136   3.454   3.491   1.625
 1394SOL    HW1 4137   3.481   3.525   1.535
 1394SOL    HW2 4138   3.533   3.453   1.671
 1395SOL     OW 4139   2.973   3.057   1.100
 1395SOL    HW1 4140   2.933   3.101   1.181
 1395SOL    HW2 4141   2.932   3.094   1.017
 1396SOL     OW 4142   3.500   2.961   1.079
 1396SOL    HW1 4143   3.505   3.042   1.138
 1396SOL    HW2 4144   3.414   2.963   1.028
 1397SOL     OW 4145   2.777   1.951   1.402
 1397SOL    HW1 4146   2.802   1.931   1.307
 1397SOL    HW2 4147   2.849   2.007   1.444
 1398SOL     OW 4148   2.842   2.978   1.719
 1398SOL    HW1 4149   2.743   2.984   1.729
 1398SOL    HW2 4150   2.865   2.898   1.663
 1399SOL     OW 4151   2.567   2.912   0.368
 1399SOL    HW1 4152   2.553   2.919   0.467
 1399SOL    HW2 4153   2.651   2.861   0.350
 1400SOL     OW 4154   2.272   2.675   1.251
 1400SOL    HW1 4155   2.358   2.687   1.301
 1400SOL    HW2 4156   2.230   2.588   1.278
 1401SOL     OW 4157   3.136   2.248   1.262
 1401SOL    HW1 4158   3.157   2.322   1.326
 1401SOL    HW2 4159   3.047   2.265   1.219
 1402SOL     OW 4160   1.926   3.426   1.331
 1402SOL    HW1 4161   1.880   3.508   1.297
 1402SOL    HW2 4162   2.024   3.445   1.340
 1403SOL     OW 4163   2.229   2.962   0.501
 1403SOL    HW1 4164   2.222   3.045   0.445
 1403SOL    HW2 4165   2.233   2.882   0.441
 1404SOL     OW 4166   2.428   2.399   0.865
 1404SOL    HW1 4167   2.440   2.465   0.791
 1404SOL    HW2 4168   2.474   2.433   0.948
 1405SOL     OW 4169   3.114   3.210   0.388
 1405SOL    HW1 4170   3.164   3.287   0.428
 1405SOL    HW2 4171   3.019   3.212   0.420
 1406SOL     OW 4172   3.134   3.307   1.142
 1406SOL    HW1 4173   3.181   3.320   1.229
 1406SOL    HW2 4174   3.068   3.233   1.151
 1407SOL     OW 4175   3.444   2.501   0.472
 1407SOL    HW1 4176   3.413   2.562   0.545
 1407SOL    HW2 4177   3.494   2.553   0.403
 1408SOL     OW 4178   2.216   3.372   1.329
 1408SOL    HW1 4179   2.195   3.328   1.242
 1408SOL    HW2 4180   2.313   3.398   1.332
 1409SOL     OW 4181   2.264   2.613   1.598
 1409SOL    HW1 4182   2.332   2.668   1.551
 1409SOL    HW2 4183   2.304   2.525   1.625
 1410SOL     OW 4184   3.449   2.641   1.670
 1410SOL    HW1 4185   3.357   2.679   1.665
 1410SOL    HW2 4186   3.509   2.688   1.605
 1411SOL     OW 4187   2.875   1.967   1.770
 1411SOL    HW1 4188   2.881   2.052   1.718
 1411SOL    HW2 4189   2.907   1.891   1.713
 1412SOL     OW 4190   2.366   1.912   1.740
 1412SOL    HW1 4191   2.324   1.855   1.670
 1412SOL    HW2 4192   2.300   1.981   1.772
 1413SOL     OW 4193   2.435   2.732   1.029
 1413SOL    HW1 4194   2.479   2.821   1.020
 1413SOL    HW2 4195   2.372   2.732   1.106
 1414SOL     OW 4196   3.222   2.724   1.045
 1414SOL    HW1 4197   3.147   2.724   0.979
 1414SOL    HW2 4198   3.259   2.632   1.054
 1415SOL     OW 4199   3.071   2.387   0.275
 1415SOL    HW1 4200   3.084   2.303   0.329
 1415SOL    HW2 4201   3.042   2.461   0.335
 1416SOL     OW 4202   2.169   2.075   1.231
 1416SOL    HW1 4203   2.146   2.112   1.321
 1416SOL    HW2 4204   2.139   1.980   1.225
 1417SOL     OW 4205   1.899   3.172   1.282
 1417SOL    HW1 4206   1.952   3.123   1.350
 1417SOL    HW2 4207   1.921   3.270   1.287
 1418SOL     OW 4208   2.594   2.496   1.064
 1418SOL    HW1 4209   2.653   2.470   0.988
 1418SOL    HW2 4210   2.566   2.592   1.053
 1419SOL     OW 4211   3.590   2.797   1.854
 1419SOL    HW1 4212   3.544   2.790   1.765
 1419SOL    HW2 4213   3.528   2.841   1.920
 1420SOL     OW 4214   2.169   1.925   0.618
 1420SOL    HW1 4215   2.158   2.019   0.651
 1420SOL    HW2 4216   2.164   1.862   0.695
 1421SOL     OW 4217   3.484   2.229   0.374
 1421SOL    HW1 4218   3.486   2.153   0.438
 1421SOL    HW2 4219   3.436   2.306   0.414
 1422SOL     OW 4220   2.885   2.628   0.966
 1422SOL    HW1 4221   2.900   2.649   1.062
 1422SOL    HW2 4222   2.855   2.533   0.957
 1423SOL     OW 4223   2.842   3.435   1.700
 1423SOL    HW1 4224   2.822   3.479   1.612
 1423SOL    HW2 4225   2.881   3.344   1.684
 1424SOL     OW 4226   3.721   3.380   1.605
 1424SOL    HW1 4227   3.735   3.407   1.510
 1424SOL    HW2 4228   3.804   3.402   1.658
 1425SOL     OW 4229   2.212   2.760   1.804
 1425SOL    HW1 4230   2.288   2.804   1.852
 1425SOL    HW2 4231   2.247   2.713   1.722
 1426SOL     OW 4232   3.402   2.136   0.125
 1426SOL    HW1 4233   3.341   2.061   0.148
 1426SOL    HW2 4234   3.424   2.188   0.208
 1427SOL     OW 4235   3.165   2.700   0.042
 1427SOL    HW1 4236   3.199   2.607   0.057
 1427SOL    HW2 4237   3.183   2.727  -0.053
 1428SOL     OW 4238   2.930   3.195   0.849
 1428SOL    HW1 4239   2.937   3.111   0.794
 1428SOL    HW2 4240   2.992   3.264   0.813
 1429SOL     OW 4241   2.181   2.672   0.949
 1429SOL    HW1 4242   2.274   2.708   0.954
 1429SOL    HW2 4243   2.175   2.587   1.001
 1430SOL     OW 4244   2.201   2.371   1.006
 1430SOL    HW1 4245   2.149   2.288   0.989
 1430SOL    HW2 4246   2.278   2.376   0.942
 1431SOL     OW 4247   3.000   2.242   1.678
 1431SOL    HW1 4248   2.955   2.305   1.742
 1431SOL    HW2 4249   3.093   2.273   1.661
 1432SOL     OW 4250   3.022   2.069   1.477
 1432SOL    HW1 4251   3.022   2.133   1.554
 1432SOL    HW2 4252   3.050   2.117   1.394
 1433SOL     OW 4253   1.870   3.188   0.200
 1433SOL    HW1 4254   1.777   3.209   0.169
 1433SOL    HW2 4255   1.880   3.089   0.213
 1434SOL     OW 4256   1.950   3.663   0.927
 1434SOL    HW1 4257   1.908   3.577   0.900
 1434SOL    HW2 4258   2.044   3.666   0.893
 1435SOL     OW 4259   2.366   3.430   0.910
 1435SOL    HW1 4260   2.432   3.504   0.919
 1435SOL    HW2 4261   2.410   3.351   0.868
 1436SOL     OW 4262   2.864   2.658   1.238
 1436SOL    HW1 4263   2.905   2.626   1.324
 1436SOL    HW2 4264   2.768   2.631   1.235
 1437SOL     OW 4265   1.902   2.406   1.114
 1437SOL    HW1 4266   1.987   2.373   1.073
 1437SOL    HW2 4267   1.915   2.421   1.212
 1438SOL     OW 4268   2.051   2.382   1.722
 1438SOL    HW1 4269   2.110   2.342   1.652
 1438SOL    HW2 4270   1.993   2.453   1.681
 1439SOL     OW 4271   3.231   2.812   1.660
 1439SOL    HW1 4272   3.270   2.901   1.680
 1439SOL    HW2 4273   3.241   2.792   1.563
 1440SOL     OW 4274   2.677   2.434   0.325
 1440SOL    HW1 4275   2.684   2.345   0.279
 1440SOL    HW2 4276   2.583   2.468   0.317
 1441SOL     OW 4277   3.519   2.466   1.206
 1441SOL    HW1 4278   3.481   2.397   1.268
 1441SOL    HW2 4279   3.601   2.430   1.162
 1442SOL     OW 4280   2.114   3.426   1.744
 1442SOL    HW1 4281   2.084   3.483   1.820
 1442SOL    HW2 4282   2.107   3.329   1.770
 1443SOL     OW 4283   2.533   2.326   1.269
 1443SOL    HW1 4284   2.499   2.237   1.239
 1443SOL    HW2 4285   2.559   2.380   1.189
 1444SOL     OW 4286   2.792   3.540   1.465
 1444SOL    HW1 4287   2.768   3.522   1.370
 1444SOL    HW2 4288   2.822   3.634   1.475
 1445SOL     OW 4289   2.335   2.362   0.191
 1445SOL    HW1 4290   2.396   2.442   0.195
 1445SOL    HW2 4291   2.240   2.393   0.198
 1446SOL     OW 4292   2.021   2.999   1.466
 1446SOL    HW1 4293   2.043   2.938   1.542
 1446SOL    HW2 4294   2.031   2.950   1.380
 1447SOL     OW 4295   3.209   2.921   1.234
 1447SOL    HW1 4296   3.233   2.858   1.160
 1447SOL    HW2 4297   3.119   2.961   1.216
 1448SOL     OW 4298   3.164   2.717   0.309
 1448SOL    HW1 4299   3.078   2.686   0.351
 1448SOL    HW2 4300   3.160   2.703   0.210
 1449SOL     OW 4301   3.621   3.609   1.154
 1449SOL    HW1 4302   3.682   3.639   1.081
 1449SOL    HW2 4303   3.583   3.520   1.132
 1450SOL     OW 4304   3.114   3.593   1.128
 1450SOL    HW1 4305   3.198   3.598   1.074
 1450SOL    HW2 4306   3.091   3.497   1.146
 1451SOL     OW 4307   1.945   3.120   1.022
 1451SOL    HW1 4308   1.940   3.119   1.122
 1451SOL    HW2 4309   1.862   3.079   0.984
 1452SOL     OW 4310   2.550   3.524   1.716
 1452SOL    HW1 4311   2.494   3.605   1.725
 1452SOL    HW2 4312   2.602   3.528   1.630
 1453SOL     OW 4313   2.765   1.948   0.133
 1453SOL    HW1 4314   2.816   1.949   0.047
 1453SOL    HW2 4315   2.821   1.906   0.204
 1454SOL     OW 4316   3.588   1.997   0.523
 1454SOL    HW1 4317   3.661   1.980   0.456
 1454SOL    HW2 4318   3.557   1.910   0.561
 1455SOL     OW 4319   3.250   3.435   0.477
 1455SOL    HW1 4320   3.317   3.447   0.403
 1455SOL    HW2 4321   3.210   3.524   0.500
 1456SOL     OW 4322   1.992   3.656   1.851
 1456SOL    HW1 4323   1.951   3.582   1.904
 1456SOL    HW2 4324   2.056   3.707   1.909
 1457SOL     OW 4325   3.142   2.789   0.672
 1457SOL    HW1 4326   3.202   2.708   0.674
 1457SOL    HW2 4327   3.182   2.858   0.612
 1458SOL     OW 4328   2.692   3.135   1.422
 1458SOL    HW1 4329   2.687   3.168   1.517
 1458SOL    HW2 4330   2.606   3.154   1.376
 1459SOL     OW 4331   2.534   3.478   0.154
 1459SOL    HW1 4332   2.543   3.488   0.055
 1459SOL    HW2 4333   2.494   3.389   0.175
 1460SOL     OW 4334   3.512   3.582   1.394
 1460SOL    HW1 4335   3.565   3.592   1.310
 1460SOL    HW2 4336   3.485   3.672   1.428
 1461SOL     OW 4337   3.703   2.037   0.963
 1461SOL    HW1 4338   3.742   1.952   0.927
 1461SOL    HW2 4339   3.605   2.039   0.944
 1462SOL     OW 4340   2.125   2.188   0.720
 1462SOL    HW1 4341   2.046   2.239   0.686
 1462SOL    HW2 4342   2.116   2.173   0.818
 1463SOL     OW 4343   3.056   3.474   0.031
 1463SOL    HW1 4344   3.062   3.381   0.068
 1463SOL    HW2 4345   2.997   3.474  -0.049
 1464SOL     OW 4346   2.684   2.864   1.372
 1464SOL    HW1 4347   2.724   2.863   1.280
 1464SOL    HW2 4348   2.694   2.956   1.412
 1465SOL     OW 4349   2.778   2.772   0.291
 1465SOL    HW1 4350   2.841   2.810   0.223
 1465SOL    HW2 4351   2.818   2.689   0.330
 1466SOL     OW 4352   3.366   3.469   0.044
 1466SOL    HW1 4353   3.274   3.506   0.051
 1466SOL    HW2 4354   3.404   3.489  -0.046
 1467SOL     OW 4355   2.234   3.150   1.490
 1467SOL    HW1 4356   2.221   3.243   1.456
 1467SOL    HW2 4357   2.150   3.098   1.477
 1468SOL     OW 4358   3.476   3.154   1.289
 1468SOL    HW1 4359   3.536   3.157   1.369
 1468SOL    HW2 4360   3.401   3.218   1.302
 1469SOL     OW 4361   2.901   2.960   0.696
 1469SOL    HW1 4362   2.831   2.913   0.750
 1469SOL    HW2 4363   2.960   2.892   0.653
 1470SOL     OW 4364   2.876   2.098   0.971
 1470SOL    HW1 4365   2.868   2.062   0.878
 1470SOL    HW2 4366   2.874   2.022   1.036
 1471SOL     OW 4367   2.452   3.349   0.491
 1471SOL    HW1 4368   2.494   3.291   0.421
 1471SOL    HW2 4369   2.408   3.428   0.447
 1472SOL     OW 4370   3.571   2.247   1.381
 1472SOL    HW1 4371   3.644   2.316   1.385
 1472SOL    HW2 4372   3.599   2.172   1.322
 1473SOL     OW 4373   2.117   3.210   0.290
 1473SOL    HW1 4374   2.021   3.211   0.263
 1473SOL    HW2 4375   2.129   3.263   0.374
 1474SOL     OW 4376   1.967   2.875   1.726
 1474SOL    HW1 4377   1.890   2.842   1.780
 1474SOL    HW2 4378   2.052   2.845   1.768
 1475SOL     OW 4379   2.534   2.065   1.489
 1475SOL    HW1 4380   2.624   2.049   1.449
 1475SOL    HW2 4381   2.542   2.070   1.588
 1476SOL     OW 4382   1.937   2.207   0.033
 1476SOL    HW1 4383   1.845   2.179   0.004
 1476SOL    HW2 4384   1.968   2.284  -0.023
 1477SOL     OW 4385   3.302   2.718   1.398
 1477SOL    HW1 4386   3.245   2.770   1.335
 1477SOL    HW2 4387   3.398   2.730   1.374
 1478SOL     OW 4388   1.934   2.028   0.318
 1478SOL    HW1 4389   1.917   2.111   0.264
 1478SOL    HW2 4390   2.024   1.991   0.296
 1479SOL     OW 4391   3.045   3.197   0.119
 1479SOL    HW1 4392   2.946   3.186   0.121
 1479SOL    HW2 4393   3.079   3.212   0.212
 1480SOL     OW 4394   2.475   2.704   1.431
 1480SOL    HW1 4395   2.531   2.785   1.414
 1480SOL    HW2 4396   2.534   2.624   1.434
 1481SOL     OW 4397   3.355   3.629   0.959
 1481SOL    HW1 4398   3.388   3.693   0.890
 1481SOL    HW2 4399   3.421   3.623   1.034
 1482SOL     OW 4400   2.578   2.427   1.708
 1482SOL    HW1 4401   2.597   2.492   1.782
 1482SOL    HW2 4402   2.638   2.347   1.717
 1483SOL     OW 4403   3.312   3.082   1.633
 1483SOL    HW1 4404   3.303   3.072   1.732
 1483SOL    HW2 4405   3.408   3.075   1.607
 1484SOL     OW 4406   2.252   3.603   1.560
 1484SOL    HW1 4407   2.161   3.644   1.558
 1484SOL    HW2 4408   2.245   3.509   1.592
 1485SOL     OW 4409   3.536   2.745   1.254
 1485SOL    HW1 4410   3.509   2.656   1.217
 1485SOL    HW2 4411   3.537   2.813   1.181
 1486SOL     OW 4412   3.087   2.187   0.449
 1486SOL    HW1 4413   3.152   2.113   0.438
 1486SOL    HW2 4414   3.107   2.237   0.533
 1487SOL     OW 4415   2.456   2.607   0.652
 1487SOL    HW1 4416   2.506   2.692   0.633
 1487SOL    HW2 4417   2.368   2.609   0.604
 1488SOL     OW 4418   3.639   2.204   1.642
 1488SOL    HW1 4419   3.622   2.235   1.548
 1488SOL    HW2 4420   3.555   2.167   1.680
 1489SOL     OW 4421   3.592   2.796   1.517
 1489SOL    HW1 4422   3.630   2.887   1.532
 1489SOL    HW2 4423   3.584   2.779   1.418
 1490SOL     OW 4424   2.721   3.236   0.016
 1490SOL    HW1 4425   2.675   3.251   0.104
 1490SOL    HW2 4426   2.765   3.321  -0.014
 1491SOL     OW 4427   2.523   3.652   0.953
 1491SOL    HW1 4428   2.477   3.740   0.940
 1491SOL    HW2 4429   2.622   3.664   0.946
 1492SOL     OW 4430   2.721   2.818   0.861
 1492SOL    HW1 4431   2.775   2.749   0.909
 1492SOL    HW2 4432   2.689   2.887   0.927
 1493SOL     OW 4433   2.945   2.846   0.087
 1493SOL    HW1 4434   2.922   2.899   0.005
 1493SOL    HW2 4435   3.026   2.790   0.068
 1494SOL     OW 4436   3.723   3.431   0.851
 1494SOL    HW1 4437   3.652   3.419   0.781
 1494SOL    HW2 4438   3.724   3.352   0.911
 1495SOL     OW 4439   2.083   3.176   1.844
 1495SOL    HW1 4440   2.018   3.103   1.823
 1495SOL    HW2 4441   2.087   3.190   1.942
 1496SOL     OW 4442   1.941   3.102   0.653
 1496SOL    HW1 4443   1.940   3.055   0.741
 1496SOL    HW2 4444   2.023   3.074   0.602
 1497SOL     OW 4445   2.534   3.253   1.624
 1497SOL    HW1 4446   2.456   3.203   1.662
 1497SOL    HW2 4447   2.531   3.348   1.655
 1498SOL     OW 4448   3.686   2.054   1.227
 1498SOL    HW1 4449   3.682   1.964   1.271
 1498SOL    HW2 4450   3.689   2.043   1.128
 1499SOL     OW 4451   2.290   2.286   0.520
 1499SOL    HW1 4452   2.320   2.214   0.458
 1499SOL    HW2 4453   2.251   2.246   0.603
 1500SOL     OW 4454   3.567   3.349   1.104
 1500SOL    HW1 4455   3.474   3.324   1.077
 1500SOL    HW2 4456   3.593   3.299   1.186
 1501SOL     OW 4457   2.179   2.409   1.280
 1501SOL    HW1 4458   2.217   2.350   1.352
 1501SOL    HW2 4459   2.219   2.383   1.192
 1502SOL     OW 4460   2.674   3.448   0.687
 1502SOL    HW1 4461   2.706   3.458   0.593
 1502SOL    HW2 4462   2.595   3.386   0.689
 1503SOL     OW 4463   3.286   2.076   1.112
 1503SOL    HW1 4464   3.338   2.011   1.167
 1503SOL    HW2 4465   3.237   2.139   1.173
 1504SOL     OW 4466   2.863   1.896   1.154
 1504SOL    HW1 4467   2.800   1.824   1.123
 1504SOL    HW2 4468   2.956   1.860   1.154
 1505SOL     OW 4469   2.632   3.192   0.301
 1505SOL    HW1 4470   2.586   3.105   0.318
 1505SOL    HW2 4471   2.723   3.189   0.342
 1506SOL     OW 4472   2.480   3.429   1.284
 1506SOL    HW1 4473   2.475   3.511   1.341
 1506SOL    HW2 4474   2.569   3.426   1.239
 1507SOL     OW 4475   3.214   1.914   0.168
 1507SOL    HW1 4476   3.249   1.873   0.084
 1507SOL    HW2 4477   3.124   1.876   0.188
 1508SOL     OW 4478   3.162   2.315   0.691
 1508SOL    HW1 4479   3.103   2.395   0.695
 1508SOL    HW2 4480   3.177   2.280   0.784
 1509SOL     OW 4481   3.455   2.083   0.882
 1509SOL    HW1 4482   3.371   2.082   0.936
 1509SOL    HW2 4483   3.457   2.166   0.826
 1510SOL     OW 4484   1.901   2.939   0.300
 1510SOL    HW1 4485   2.000   2.928   0.291
 1510SOL    HW2 4486   1.861   2.853   0.332
 1511SOL     OW 4487   2.737   3.508   0.337
 1511SOL    HW1 4488   2.660   3.473   0.283
 1511SOL    HW2 4489   2.705   3.579   0.399
 1512SOL     OW 4490   2.092   2.490   1.975
 1512SOL    HW1 4491   1.999   2.488   2.012
 1512SOL    HW2 4492   2.093   2.451   1.883
 1513SOL     OW 4493   2.087   2.137   2.858
 1513SOL    HW1 4494   2.122   2.120   2.950
 1513SOL    HW2 4495   1.999   2.092   2.846
 1514SOL     OW 4496   2.431   3.137   3.027
 1514SOL    HW1 4497   2.338   3.130   2.990
 1514SOL    HW2 4498   2.442   3.226   3.071
 1515SOL     OW 4499   3.417   3.373   2.565
 1515SOL    HW1 4500   3.360   3.357   2.646
 1515SOL    HW2 4501   3.358   3.383   2.485
 1516SOL     OW 4502   2.997   2.565   2.579
 1516SOL    HW1 4503   3.054   2.643   2.554
 1516SOL    HW2 4504   2.937   2.591   2.655
 1517SOL     OW 4505   3.617   2.469   2.093
 1517SOL    HW1 4506   3.605   2.456   1.994
 1517SOL    HW2 4507   3.587   2.388   2.142
 1518SOL     OW 4508   2.630   3.006   2.885
 1518SOL    HW1 4509   2.552   3.023   2.945
 1518SOL    HW2 4510   2.664   3.093   2.849
 1519SOL     OW 4511   2.712   2.660   3.685
 1519SOL    HW1 4512   2.708   2.736   3.750
 1519SOL    HW2 4513   2.734   2.696   3.594
 1520SOL     OW 4514   2.547   2.874   2.527
 1520SOL    HW1 4515   2.616   2.858   2.597
 1520SOL    HW2 4516   2.474   2.931   2.565
 1521SOL     OW 4517   2.548   3.023   3.665
 1521SOL    HW1 4518   2.608   3.102   3.679
 1521SOL    HW2 4519   2.462   3.054   3.624
 1522SOL     OW 4520   2.197   3.297   2.923
 1522SOL    HW1 4521   2.119   3.266   2.870
 1522SOL    HW2 4522   2.255   3.355   2.866
 1523SOL     OW 4523   3.322   3.367   3.201
 1523SOL    HW1 4524   3.346   3.461   3.227
 1523SOL    HW2 4525   3.306   3.313   3.283
 1524SOL     OW 4526   2.300   2.254   3.361
 1524SOL    HW1 4527   2.382   2.198   3.370
 1524SOL    HW2 4528   2.219   2.196   3.365
 1525SOL     OW 4529   3.465   2.309   2.599
 1525SOL    HW1 4530   3.391   2.355   2.549
 1525SOL    HW2 4531   3.516   2.377   2.652
 1526SOL     OW 4532   2.093   3.575   2.345
 1526SOL    HW1 4533   2.127   3.652   2.399
 1526SOL    HW2 4534   2.137   3.575   2.255
 1527SOL     OW 4535   2.989   3.203   3.552
 1527SOL    HW1 4536   3.036   3.203   3.640
 1527SOL    HW2 4537   2.941   3.116   3.541
 1528SOL     OW 4538   2.092   3.296   2.400
 1528SOL    HW1 4539   2.066   3.392   2.400
 1528SOL    HW2 4540   2.021   3.242   2.445
 1529SOL     OW 4541   2.102   2.953   2.748
 1529SOL    HW1 4542   2.116   2.869   2.800
 1529SOL    HW2 4543   2.047   3.017   2.803
 1530SOL     OW 4544   2.482   3.648   3.301
 1530SOL    HW1 4545   2.390   3.631   3.336
 1530SOL    HW2 4546   2.510   3.740   3.327
 1531SOL     OW 4547   2.468   2.826   1.985
 1531SOL    HW1 4548   2.475   2.910   1.931
 1531SOL    HW2 4549   2.514   2.839   2.073
 1532SOL     OW 4550   3.456   1.976   3.342
 1532SOL    HW1 4551   3.438   2.043   3.270
 1532SOL    HW2 4552   3.453   2.022   3.431
 1533SOL     OW 4553   3.704   3.629   2.221
 1533SOL    HW1 4554   3.758   3.600   2.301
 1533SOL    HW2 4555   3.734   3.719   2.192
 1534SOL     OW 4556   1.889   3.458   1.979
 1534SOL    HW1 4557   1.870   3.362   2.000
 1534SOL    HW2 4558   1.856   3.516   2.054
 1535SOL     OW 4559   3.551   2.784   2.474
 1535SOL    HW1 4560   3.646   2.755   2.482
 1535SOL    HW2 4561   3.543   2.849   2.399
 1536SOL     OW 4562   3.503   2.970   2.294
 1536SOL    HW1 4563   3.589   2.972   2.242
 1536SOL    HW2 4564   3.517   3.017   2.382
 1537SOL     OW 4565   1.975   2.599   3.459
 1537SOL    HW1 4566   2.063   2.586   3.504
 1537SOL    HW2 4567   1.962   2.696   3.437
 1538SOL     OW 4568   2.475   3.227   2.588
 1538SOL    HW1 4569   2.426   3.140   2.597
 1538SOL    HW2 4570   2.452   3.270   2.501
 1539SOL     OW 4571   3.155   3.090   3.285
 1539SOL    HW1 4572   3.192   3.017   3.227
 1539SOL    HW2 4573   3.207   3.095   3.370
 1540SOL     OW 4574   2.671   1.866   2.364
 1540SOL    HW1 4575   2.711   1.957   2.355
 1540SOL    HW2 4576   2.571   1.874   2.370
 1541SOL     OW 4577   2.059   2.838   3.126
 1541SOL    HW1 4578   2.148   2.793   3.112
 1541SOL    HW2 4579   1.986   2.773   3.107
 1542SOL     OW 4580   3.387   2.861   2.052
 1542SOL    HW1 4581   3.324   2.785   2.065
 1542SOL    HW2 4582   3.435   2.879   2.138
 1543SOL     OW 4583   3.049   3.654   3.478
 1543SOL    HW1 4584   3.073   3.714   3.402
 1543SOL    HW2 4585   3.056   3.559   3.448
 1544SOL     OW 4586   2.179   2.113   3.663
 1544SOL    HW1 4587   2.250   2.184   3.669
 1544SOL    HW2 4588   2.091   2.152   3.691
 1545SOL     OW 4589   3.328   3.279   2.815
 1545SOL    HW1 4590   3.269   3.285   2.895
 1545SOL    HW2 4591   3.313   3.191   2.769
 1546SOL     OW 4592   3.529   3.576   2.434
 1546SOL    HW1 4593   3.488   3.553   2.346
 1546SOL    HW2 4594   3.511   3.502   2.499
 1547SOL     OW 4595   2.460   2.591   2.132
 1547SOL    HW1 4596   2.484   2.660   2.064
 1547SOL    HW2 4597   2.382   2.624   2.186
 1548SOL     OW 4598   3.143   2.207   2.806
 1548SOL    HW1 4599   3.057   2.157   2.793
 1548SOL    HW2 4600   3.205   2.153   2.862
 1549SOL     OW 4601   3.438   3.524   2.169
 1549SOL    HW1 4602   3.527   3.570   2.172
 1549SOL    HW2 4603   3.417   3.500   2.074
 1550SOL     OW 4604   2.669   2.467   3.327
 1550SOL    HW1 4605   2.622   2.464   3.416
 1550SOL    HW2 4606   2.618   2.412   3.261
 1551SOL     OW 4607   3.256   2.331   3.536
 1551SOL    HW1 4608   3.236   2.374   3.624
 1551SOL    HW2 4609   3.334   2.269   3.545
 1552SOL     OW 4610   2.835   2.752   3.434
 1552SOL    HW1 4611   2.881   2.668   3.405
 1552SOL    HW2 4612   2.779   2.786   3.359
 1553SOL     OW 4613   2.853   2.272   3.104
 1553SOL    HW1 4614   2.776   2.306   3.158
 1553SOL    HW2 4615   2.819   2.221   3.025
 1554SOL     OW 4616   2.903   2.563   2.291
 1554SOL    HW1 4617   2.929   2.559   2.387
 1554SOL    HW2 4618   2.818   2.512   2.277
 1555SOL     OW 4619   1.938   2.673   2.651
 1555SOL    HW1 4620   2.037   2.661   2.660
 1555SOL    HW2 4621   1.914   2.768   2.672
 1556SOL     OW 4622   1.992   3.683   3.433
 1556SOL    HW1 4623   1.982   3.668   3.532
 1556SOL    HW2 4624   1.906   3.719   3.397
 1557SOL     OW 4625   2.727   2.210   2.057
 1557SOL    HW1 4626   2.786   2.273   2.008
 1557SOL    HW2 4627   2.746   2.116   2.028
 1558SOL     OW 4628   3.581   2.447   3.693
 1558SOL    HW1 4629   3.555   2.536   3.657
 1558SOL    HW2 4630   3.579   2.379   3.620
 1559SOL     OW 4631   3.224   3.006   2.407
 1559SOL    HW1 4632   3.307   2.977   2.359
 1559SOL    HW2 4633   3.175   3.073   2.351
 1560SOL     OW 4634   2.412   2.058   2.747
 1560SOL    HW1 4635   2.407   2.053   2.847
 1560SOL    HW2 4636   2.414   2.154   2.718
 1561SOL     OW 4637   2.870   3.318   2.339
 1561SOL    HW1 4638   2.824   3.390   2.287
 1561SOL    HW2 4639   2.866   3.338   2.437
 1562SOL     OW 4640   2.213   3.663   2.715
 1562SOL    HW1 4641   2.263   3.577   2.721
 1562SOL    HW2 4642   2.278   3.740   2.712
 1563SOL     OW 4643   3.657   2.928   2.735
 1563SOL    HW1 4644   3.595   2.913   2.659
 1563SOL    HW2 4645   3.605   2.939   2.820
 1564SOL     OW 4646   3.089   3.412   3.368
 1564SOL    HW1 4647   3.095   3.335   3.432
 1564SOL    HW2 4648   3.037   3.386   3.288
 1565SOL     OW 4649   2.183   2.805   2.104
 1565SOL    HW1 4650   2.265   2.844   2.062
 1565SOL    HW2 4651   2.156   2.723   2.055
 1566SOL     OW 4652   3.320   2.597   2.590
 1566SOL    HW1 4653   3.315   2.532   2.665
 1566SOL    HW2 4654   3.400   2.656   2.603
 1567SOL     OW 4655   2.323   3.128   3.589
 1567SOL    HW1 4656   2.273   3.129   3.503
 1567SOL    HW2 4657   2.260   3.110   3.665
 1568SOL     OW 4658   2.973   3.638   2.099
 1568SOL    HW1 4659   2.913   3.576   2.149
 1568SOL    HW2 4660   3.004   3.594   2.014
 1569SOL     OW 4661   2.064   2.147   3.360
 1569SOL    HW1 4662   1.984   2.207   3.347
 1569SOL    HW2 4663   2.054   2.098   3.446
 1570SOL     OW 4664   3.494   3.239   1.943
 1570SOL    HW1 4665   3.462   3.333   1.933
 1570SOL    HW2 4666   3.418   3.176   1.931
 1571SOL     OW 4667   2.326   3.605   2.185
 1571SOL    HW1 4668   2.359   3.644   2.271
 1571SOL    HW2 4669   2.402   3.598   2.120
 1572SOL     OW 4670   3.262   1.969   2.288
 1572SOL    HW1 4671   3.238   1.932   2.198
 1572SOL    HW2 4672   3.361   1.985   2.292
 1573SOL     OW 4673   2.111   3.647   3.103
 1573SOL    HW1 4674   2.168   3.582   3.153
 1573SOL    HW2 4675   2.095   3.614   3.010
 1574SOL     OW 4676   2.802   3.560   2.766
 1574SOL    HW1 4677   2.882   3.503   2.787
 1574SOL    HW2 4678   2.753   3.520   2.689
 1575SOL     OW 4679   2.244   2.562   2.342
 1575SOL    HW1 4680   2.289   2.472   2.339
 1575SOL    HW2 4681   2.150   2.551   2.375
 1576SOL     OW 4682   3.409   2.084   3.591
 1576SOL    HW1 4683   3.404   2.121   3.683
 1576SOL    HW2 4684   3.337   2.015   3.579
 1577SOL     OW 4685   2.476   1.984   1.979
 1577SOL    HW1 4686   2.574   1.962   1.986
 1577SOL    HW2 4687   2.445   1.967   1.886
 1578SOL     OW 4688   2.643   2.126   3.611
 1578SOL    HW1 4689   2.710   2.065   3.654
 1578SOL    HW2 4690   2.570   2.145   3.676
 1579SOL     OW 4691   2.750   3.376   3.057
 1579SOL    HW1 4692   2.727   3.351   2.963
 1579SOL    HW2 4693   2.811   3.307   3.096
 1580SOL     OW 4694   3.213   2.452   3.295
 1580SOL    HW1 4695   3.241   2.409   3.380
 1580SOL    HW2 4696   3.238   2.548   3.296
 1581SOL     OW 4697   2.665   3.264   2.786
 1581SOL    HW1 4698   2.755   3.278   2.744
 1581SOL    HW2 4699   2.594   3.266   2.715
 1582SOL     OW 4700   2.784   2.365   2.761
 1582SOL    HW1 4701   2.759   2.356   2.665
 1582SOL    HW2 4702   2.832   2.283   2.792
 1583SOL     OW 4703   2.401   1.926   2.374
 1583SOL    HW1 4704   2.320   1.927   2.432
 1583SOL    HW2 4705   2.404   2.009   2.319
 1584SOL     OW 4706   3.296   3.050   1.903
 1584SOL    HW1 4707   3.328   2.974   1.960
 1584SOL    HW2 4708   3.204   3.077   1.933
 1585SOL     OW 4709   2.797   2.098   2.342
 1585SOL    HW1 4710   2.749   2.139   2.264
 1585SOL    HW2 4711   2.896   2.096   2.323
 1586SOL     OW 4712   2.938   2.545   3.326
 1586SOL    HW1 4713   2.858   2.484   3.329
 1586SOL    HW2 4714   3.019   2.492   3.302
 1587SOL     OW 4715   3.089   3.432   2.655
 1587SOL    HW1 4716   3.110   3.506   2.590
 1587SOL    HW2 4717   3.157   3.432   2.728
 1588SOL     OW 4718   2.321   3.014   2.603
 1588SOL    HW1 4719   2.250   2.987   2.668
 1588SOL    HW2 4720   2.295   2.986   2.510
 1589SOL     OW 4721   3.133   3.659   2.453
 1589SOL    HW1 4722   3.177   3.723   2.389
 1589SOL    HW2 4723   3.083   3.711   2.523
 1590SOL     OW 4724   2.894   2.411   1.878
 1590SOL    HW1 4725   2.853   2.493   1.839
 1590SOL    HW2 4726   2.958   2.437   1.951
 1591SOL     OW 4727   1.940   2.418   3.248
 1591SOL    HW1 4728   2.032   2.417   3.207
 1591SOL    HW2 4729   1.934   2.492   3.315
 1592SOL     OW 4730   2.423   2.084   3.009
 1592SOL    HW1 4731   2.461   2.000   3.046
 1592SOL    HW2 4732   2.335   2.103   3.053
 1593SOL     OW 4733   2.728   2.316   2.504
 1593SOL    HW1 4734   2.696   2.388   2.442
 1593SOL    HW2 4735   2.752   2.235   2.451
 1594SOL     OW 4736   2.879   1.901   2.615
 1594SOL    HW1 4737   2.807   1.906   2.546
 1594SOL    HW2 4738   2.855   1.832   2.684
 1595SOL     OW 4739   3.291   3.035   2.729
 1595SOL    HW1 4740   3.236   2.951   2.722
 1595SOL    HW2 4741   3.317   3.064   2.637
 1596SOL     OW 4742   3.328   2.452   2.854
 1596SOL    HW1 4743   3.298   2.357   2.861
 1596SOL    HW2 4744   3.401   2.468   2.920
 1597SOL     OW 4745   3.719   2.695   2.239
 1597SOL    HW1 4746   3.761   2.631   2.303
 1597SOL    HW2 4747   3.681   2.644   2.161
 1598SOL     OW 4748   2.350   3.247   2.036
 1598SOL    HW1 4749   2.263   3.232   2.083
 1598SOL    HW2 4750   2.333   3.273   1.941
 1599SOL     OW 4751   3.526   3.142   2.519
 1599SOL    HW1 4752   3.625   3.150   2.533
 1599SOL    HW2 4753   3.481   3.226   2.550
 1600SOL     OW 4754   3.252   2.437   1.940
 1600SOL    HW1 4755   3.198   2.416   2.021
 1600SOL    HW2 4756   3.343   2.396   1.949
 1601SOL     OW 4757   2.389   2.118   2.190
 1601SOL    HW1 4758   2.416   2.059   2.115
 1601SOL    HW2 4759   2.389   2.213   2.159
 1602SOL     OW 4760   3.616   3.085   3.450
 1602SOL    HW1 4761   3.707   3.046   3.437
 1602SOL    HW2 4762   3.624   3.181   3.474
 1603SOL     OW 4763   2.926   3.209   3.202
 1603SOL    HW1 4764   2.846   3.186   3.257
 1603SOL    HW2 4765   3.009   3.183   3.251
 1604SOL     OW 4766   3.454   3.491   3.487
 1604SOL    HW1 4767   3.481   3.525   3.397
 1604SOL    HW2 4768   3.533   3.453   3.533
 1605SOL     OW 4769   2.973   3.057   2.962
 1605SOL    HW1 4770   2.933   3.101   3.043
 1605SOL    HW2 4771   2.932   3.094   2.879
 1606SOL     OW 4772   3.500   2.961   2.941
 1606SOL    HW1 4773   3.505   3.042   3.000
 1606SOL    HW2 4774   3.414   2.963   2.890
 1607SOL     OW 4775   2.777   1.951   3.264
 1607SOL    HW1 4776   2.802   1.931   3.169
 1607SOL    HW2 4777   2.849   2.007   3.306
 1608SOL     OW 4778   2.842   2.978   3.581
 1608SOL    HW1 4779   2.743   2.984   3.591
 1608SOL    HW2 4780   2.865   2.898   3.525
 1609SOL     OW 4781   2.567   2.912   2.230
 1609SOL    HW1 4782   2.553   2.919   2.329
 1609SOL    HW2 4783   2.651   2.861   2.212
 1610SOL     OW 4784   2.272   2.675   3.113
 1610SOL    HW1 4785   2.358   2.687   3.163
 1610SOL    HW2 4786   2.230   2.588   3.140
 1611SOL     OW 4787   3.136   2.248   3.124
 1611SOL    HW1 4788   3.157   2.322   3.188
 1611SOL    HW2 4789   3.047   2.265   3.081
 1612SOL     OW 4790   1.926   3.426   3.193
 1612SOL    HW1 4791   1.880   3.508   3.159
 1612SOL    HW2 4792   2.024   3.445   3.202
 1613SOL     OW 4793   2.229   2.962   2.363
 1613SOL    HW1 4794   2.222   3.045   2.307
 1613SOL    HW2 4795   2.233   2.882   2.303
 1614SOL     OW 4796   2.428   2.399   2.727
 1614SOL    HW1 4797   2.440   2.465   2.653
 1614SOL    HW2 4798   2.474   2.433   2.810
 1615SOL     OW 4799   3.114   3.210   2.250
 1615SOL    HW1 4800   3.164   3.287   2.290
 1615SOL    HW2 4801   3.019   3.212   2.282
 1616SOL     OW 4802   3.134   3.307   3.004
 1616SOL    HW1 4803   3.181   3.320   3.091
 1616SOL    HW2 4804   3.068   3.233   3.013
 1617SOL     OW 4805   3.444   2.501   2.334
 1617SOL    HW1 4806   3.413   2.562   2.407
 1617SOL    HW2 4807   3.494   2.553   2.265
 1618SOL     OW 4808   2.216   3.372   3.191
 1618SOL    HW1 4809   2.195   3.328   3.104
 1618SOL    HW2 4810   2.313   3.398   3.194
 1619SOL     OW 4811   2.264   2.613   3.460
 1619SOL    HW1 4812   2.332   2.668   3.413
 1619SOL    HW2 4813   2.304   2.525   3.487
 1620SOL     OW 4814   3.449   2.641   3.532
 1620SOL    HW1 4815   3.357   2.679   3.527
 1620SOL    HW2 4816   3.509   2.688   3.467
 1621SOL     OW 4817   2.875   1.967   3.632
 1621SOL    HW1 4818   2.881   2.052   3.580
 1621SOL    HW2 4819   2.907   1.891   3.575
 1622SOL     OW 4820   2.366   1.912   3.602
 1622SOL    HW1 4821   2.324   1.855   3.532
 1622SOL    HW2 4822   2.300   1.981   3.634
 1623SOL     OW 4823   2.435   2.732   2.891
 1623SOL    HW1 4824   2.479   2.821   2.882
 1623SOL    HW2 4825   2.372   2.732   2.968
 1624SOL     OW 4826   3.222   2.724   2.907
 1624SOL    HW1 4827   3.147   2.724   2.841
 1624SOL    HW2 4828   3.259   2.632   2.916
 1625SOL     OW 4829   3.071   2.387   2.137
 1625SOL    HW1 4830   3.084   2.303   2.191
 1625SOL    HW2 4831   3.042   2.461   2.197
 1626SOL     OW 4832   2.169   2.075   3.093
 1626SOL    HW1 4833   2.146   2.112   3.183
 1626SOL    HW2 4834   2.139   1.980   3.087
 1627SOL     OW 4835   1.899   3.172   3.144
 1627SOL    HW1 4836   1.952   3.123   3.212
 1627SOL    HW2 4837   1.921   3.270   3.149
 1628SOL     OW 4838   2.594   2.496   2.926
 1628SOL    HW1 4839   2.653   2.470   2.850
 1628SOL    HW2 4840   2.566   2.592   2.915
 1629SOL     OW 4841   3.590   2.797   3.716
 1629SOL    HW1 4842   3.544   2.790   3.627
 1629SOL    HW2 4843   3.528   2.841   3.782
 1630SOL     OW 4844   3.484   2.229   2.236
 1630SOL    HW1 4845   3.486   2.153   2.300
 1630SOL    HW2 4846   3.436   2.306   2.276
 1631SOL     OW 4847   2.885   2.628   2.828
 1631SOL    HW1 4848   2.900   2.649   2.924
 1631SOL    HW2 4849   2.855   2.533   2.819
 1632SOL     OW 4850   2.842   3.435   3.562
 1632SOL    HW1 4851   2.822   3.479   3.474
 1632SOL    HW2 4852   2.881   3.344   3.546
 1633SOL     OW 4853   3.721   3.380   3.467
 1633SOL    HW1 4854   3.735   3.407   3.372
 1633SOL    HW2 4855   3.804   3.402   3.520
 1634SOL     OW 4856   2.212   2.760   3.666
 1634SOL    HW1 4857   2.288   2.804   3.714
 1634SOL    HW2 4858   2.247   2.713   3.584
 1635SOL     OW 4859   3.402   2.136   1.987
 1635SOL    HW1 4860   3.341   2.061   2.010
 1635SOL    HW2 4861   3.424   2.188   2.070
 1636SOL     OW 4862   3.165   2.700   1.904
 1636SOL    HW1 4863   3.199   2.607   1.919
 1636SOL    HW2 4864   3.183   2.727   1.809
 1637SOL     OW 4865   2.930   3.195   2.711
 1637SOL    HW1 4866   2.937   3.111   2.656
 1637SOL    HW2 4867   2.992   3.264   2.675
 1638SOL     OW 4868   2.181   2.672   2.811
 1638SOL    HW1 4869   2.274   2.708   2.816
 1638SOL    HW2 4870   2.175   2.587   2.863
 1639SOL     OW 4871   2.201   2.371   2.868
 1639SOL    HW1 4872   2.149   2.288   2.851
 1639SOL    HW2 4873   2.278   2.376   2.804
 1640SOL     OW 4874   3.000   2.242   3.540
 1640SOL    HW1 4875   2.955   2.305   3.604
 1640SOL    HW2 4876   3.093   2.273   3.523
 1641SOL     OW 4877   3.022   2.069   3.339
 1641SOL    HW1 4878   3.022   2.133   3.416
 1641SOL    HW2 4879   3.050   2.117   3.256
 1642SOL     OW 4880   1.870   3.188   2.062
 1642SOL    HW1 4881   1.777   3.209   2.031
 1642SOL    HW2 4882   1.880   3.089   2.075
 1643SOL     OW 4883   1.950   3.663   2.789
 1643SOL    HW1 4884   1.908   3.577   2.762
 1643SOL    HW2 4885   2.044   3.666   2.755
 1644SOL     OW 4886   2.366   3.430   2.772
 1644SOL    HW1 4887   2.432   3.504   2.781
 1644SOL    HW2 4888   2.410   3.351   2.730
 1645SOL     OW 4889   2.864   2.658   3.100
 1645SOL    HW1 4890   2.905   2.626   3.186
 1645SOL    HW2 4891   2.768   2.631   3.097
 1646SOL     OW 4892   1.902   2.406   2.976
 1646SOL    HW1 4893   1.987   2.373   2.935
 1646SOL    HW2 4894   1.915   2.421   3.074
 1647SOL     OW 4895   2.051   2.382   3.584
 1647SOL    HW1 4896   2.110   2.342   3.514
 1647SOL    HW2 4897   1.993   2.453   3.543
 1648SOL     OW 4898   3.231   2.812   3.522
 1648SOL    HW1 4899   3.270   2.901   3.542
 1648SOL    HW2 4900   3.241   2.792   3.425
 1649SOL     OW 4901   2.677   2.434   2.187
 1649SOL    HW1 4902   2.684   2.345   2.141
 1649SOL    HW2 4903   2.583   2.468   2.179
 1650SOL     OW 4904   3.519   2.466   3.068
 1650SOL    HW1 4905   3.481   2.397   3.130
 1650SOL    HW2 4906   3.601   2.430   3.024
 1651SOL     OW 4907   2.114   3.426   3.606
 1651SOL    HW1 4908   2.084   3.483   3.682
 1651SOL    HW2 4909   2.107   3.329   3.632
 1652SOL     OW 4910   2.533   2.326   3.131
 1652SOL    HW1 4911   2.499   2.237   3.101
 1652SOL    HW2 4912   2.559   2.380   3.051
 1653SOL     OW 4913   2.792   3.540   3.327
 1653SOL    HW1 4914   2.768   3.522   3.232
 1653SOL    HW2 4915   2.822   3.634   3.337
 1654SOL     OW 4916   2.335   2.362   2.053
 1654SOL    HW1 4917   2.396   2.442   2.057
 1654SOL    HW2 4918   2.240   2.393   2.060
 1655SOL     OW 4919   2.021   2.999   3.328
 1655SOL    HW1 4920   2.043   2.938   3.404
 1655SOL    HW2 4921   2.031   2.950   3.242
 1656SOL     OW 4922   3.209   2.921   3.096
 1656SOL    HW1 4923   3.233   2.858   3.022
 1656SOL    HW2 4924   3.119   2.961   3.078
 1657SOL     OW 4925   3.164   2.717   2.171
 1657SOL    HW1 4926   3.078   2.686   2.213
 1657SOL    HW2 4927   3.160   2.703   2.072
 1658SOL     OW 4928   3.621   3.609   3.016
 1658SOL    HW1 4929   3.682   3.639   2.943
 1658SOL    HW2 4930   3.583   3.520   2.994
 1659SOL     OW 4931   3.114   3.593   2.990
 1659SOL    HW1 4932   3.198   3.598   2.936
 1659SOL    HW2 4933   3.091   3.497   3.008
 1660SOL     OW 4934   1.945   3.120   2.884
 1660SOL    HW1 4935   1.940   3.119   2.984
 1660SOL    HW2 4936   1.862   3.079   2.846
 1661SOL     OW 4937   2.550   3.524   3.578
 1661SOL    HW1 4938   2.494   3.605   3.587
 1661SOL    HW2 4939   2.602   3.528   3.492
 1662SOL     OW 4940   3.588   1.997   2.385
 1662SOL    HW1 4941   3.661   1.980   2.318
 1662SOL    HW2 4942   3.557   1.910   2.423
 1663SOL     OW 4943   3.250   3.435   2.339
 1663SOL    HW1 4944   3.317   3.447   2.265
 1663SOL    HW2 4945   3.210   3.524   2.362
 1664SOL     OW 4946   1.992   3.656   3.713
 1664SOL    HW1 4947   1.951   3.582   3.766
 1664SOL    HW2 4948   2.056   3.707   3.771
 1665SOL     OW 4949   3.142   2.789   2.534
 1665SOL    HW1 4950   3.202   2.708   2.536
 1665SOL    HW2 4951   3.182   2.858   2.474
 1666SOL     OW 4952   2.692   3.135   3.284
 1666SOL    HW1 4953   2.687   3.168   3.379
 1666SOL    HW2 4954   2.606   3.154   3.238
 1667SOL     OW 4955   2.534   3.478   2.016
 1667SOL    HW1 4956   2.543   3.488   1.917
 1667SOL    HW2 4957   2.494   3.389   2.037
 1668SOL     OW 4958   3.512   3.582   3.256
 1668SOL    HW1 4959   3.565   3.592   3.172
 1668SOL    HW2 4960   3.485   3.672   3.290
 1669SOL     OW 4961   3.703   2.037   2.825
 1669SOL    HW1 4962   3.742   1.952   2.789
 1669SOL    HW2 4963   3.605   2.039   2.806
 1670SOL     OW 4964   3.056   3.474   1.893
 1670SOL    HW1 4965   3.062   3.381   1.930
 1670SOL    HW2 4966   2.997   3.474   1.813
 1671SOL     OW 4967   2.684   2.864   3.234
 1671SOL    HW1 4968   2.724   2.863   3.142
 1671SOL    HW2 4969   2.694   2.956   3.274
 1672SOL     OW 4970   2.778   2.772   2.153
 1672SOL    HW1 4971   2.841   2.810   2.085
 1672SOL    HW2 4972   2.818   2.689   2.192
 1673SOL     OW 4973   3.366   3.469   1.906
 1673SOL    HW1 4974   3.274   3.506   1.913
 1673SOL    HW2 4975   3.404   3.489   1.816
 1674SOL     OW 4976   2.234   3.150   3.352
 1674SOL    HW1 4977   2.221   3.243   3.318
 1674SOL    HW2 4978   2.150   3.098   3.339
 1675SOL     OW 4979   3.476   3.154   3.151
 1675SOL    HW1 4980   3.536   3.157   3.231
 1675SOL    HW2 4981   3.401   3.218   3.164
 1676SOL     OW 4982   2.901   2.960   2.558
 1676SOL    HW1 4983   2.831   2.913   2.612
 1676SOL    HW2 4984   2.960   2.892   2.515
 1677SOL     OW 4985   2.876   2.098   2.833
 1677SOL    HW1 4986   2.868   2.062   2.740
 1677SOL    HW2 4987   2.874   2.022   2.898
 1678SOL     OW 4988   2.452   3.349   2.353
 1678SOL    HW1 4989   2.494   3.291   2.283
 1678SOL    HW2 4990   2.408   3.428   2.309
 1679SOL     OW 4991   3.571   2.247   3.243
 1679SOL    HW1 4992   3.644   2.316   3.247
 1679SOL    HW2 4993   3.599   2.172   3.184
 1680SOL     OW 4994   2.117   3.210   2.152
 1680SOL    HW1 4995   2.021   3.211   2.125
 1680SOL    HW2 4996   2.129   3.263   2.236
 1681SOL     OW 4997   1.967   2.875   3.588
 1681SOL    HW1 4998   1.890   2.842   3.642
 1681SOL    HW2 4999   2.052   2.845   3.630
 1682SOL     OW 5000   2.534   2.065   3.351
 1682SOL    HW1 5001   2.624   2.049   3.311
 1682SOL    HW2 5002   2.542   2.070   3.450
 1683SOL     OW 5003   3.302   2.718   3.260
 1683SOL    HW1 5004   3.245   2.770   3.197
 1683SOL    HW2 5005   3.398   2.730   3.236
 1684SOL     OW 5006   3.045   3.197   1.981
 1684SOL    HW1 5007   2.946   3.186   1.983
 1684SOL    HW2 5008   3.079   3.212   2.074
 1685SOL     OW 5009   2.475   2.704   3.293
 1685SOL    HW1 5010   2.531   2.785   3.276
 1685SOL    HW2 5011   2.534   2.624   3.296
 1686SOL     OW 5012   3.355   3.629   2.821
 1686SOL    HW1 5013   3.388   3.693   2.752
 1686SOL    HW2 5014   3.421   3.623   2.896
 1687SOL     OW 5015   2.578   2.427   3.570
 1687SOL    HW1 5016   2.597   2.492   3.644
 1687SOL    HW2 5017   2.638   2.347   3.579
 1688SOL     OW 5018   3.312   3.082   3.495
 1688SOL    HW1 5019   3.303   3.072   3.594
 1688SOL    HW2 5020   3.408   3.075   3.469
 1689SOL     OW 5021   2.252   3.603   3.422
 1689SOL    HW1 5022   2.161   3.644   3.420
 1689SOL    HW2 5023   2.245   3.509   3.454
 1690SOL     OW 5024   3.536   2.745   3.116
 1690SOL    HW1 5025   3.509   2.656   3.079
 1690SOL    HW2 5026   3.537   2.813   3.043
 1691SOL     OW 5027   3.087   2.187   2.311
 1691SOL    HW1 5028   3.152   2.113   2.300
 1691SOL    HW2 5029   3.107   2.237   2.395
 1692SOL     OW 5030   2.456   2.607   2.514
 1692SOL    HW1 5031   2.506   2.692   2.495
 1692SOL    HW2 5032   2.368   2.609   2.466
 1693SOL     OW 5033   3.639   2.204   3.504
 1693SOL    HW1 5034   3.622   2.235   3.410
 1693SOL    HW2 5035   3.555   2.167   3.542
 1694SOL     OW 5036   3.592   2.796   3.379
 1694SOL    HW1 5037   3.630   2.887   3.394
 1694SOL    HW2 5038   3.584   2.779   3.280
 1695SOL     OW 5039   2.721   3.236   1.878
 1695SOL    HW1 5040   2.675   3.251   1.966
 1695SOL    HW2 5041   2.765   3.321   1.848
 1696SOL     OW 5042   2.523   3.652   2.815
 1696SOL    HW1 5043   2.477   3.740   2.802
 1696SOL    HW2 5044   2.622   3.664   2.808
 1697SOL     OW 5045   2.721   2.818   2.723
 1697SOL    HW1 5046   2.775   2.749   2.771
 1697SOL    HW2 5047   2.689   2.887   2.789
 1698SOL     OW 5048   2.945   2.846   1.949
 1698SOL    HW1 5049   2.922   2.899   1.867
 1698SOL    HW2 5050   3.026   2.790   1.930
 1699SOL     OW 5051   3.723   3.431   2.713
 1699SOL    HW1 5052   3.652   3.419   2.643
 1699SOL    HW2 5053   3.724   3.352   2.773
 1700SOL     OW 5054   2.083   3.176   3.706
 1700SOL    HW1 5055   2.018   3.103   3.685
 1700SOL    HW2 5056   2.087   3.190   3.804
 1701SOL     OW 5057   1.941   3.102   2.515
 1701SOL    HW1 5058   1.940   3.055   2.603
 1701SOL    HW2 5059   2.023   3.074   2.464
 1702SOL     OW 5060   2.534   3.253   3.486
 1702SOL    HW1 5061   2.456   3.203   3.524
 1702SOL    HW2 5062   2.531   3.348   3.517
 1703SOL     OW 5063   3.686   2.054   3.089
 1703SOL    HW1 5064   3.682   1.964   3.133
 1703SOL    HW2 5065   3.689   2.043   2.990
 1704SOL     OW 5066   3.567   3.349   2.966
 1704SOL    HW1 5067   3.474   3.324   2.939
 1704SOL    HW2 5068   3.593   3.299   3.048
 1705SOL     OW 5069   2.179   2.409   3.142
 1705SOL    HW1 5070   2.217   2.350   3.214
 1705SOL    HW2 5071   2.219   2.383   3.054
 1706SOL     OW 5072   2.674   3.448   2.549
 1706SOL    HW1 5073   2.706   3.458   2.455
 1706SOL    HW2 5074   2.595   3.386   2.551
 1707SOL     OW 5075   3.286   2.076   2.974
 1707SOL    HW1 5076   3.338   2.011   3.029
 1707SOL    HW2 5077   3.237   2.139   3.035
 1708SOL     OW 5078   2.863   1.896   3.016
 1708SOL    HW1 5079   2.800   1.824   2.985
 1708SOL    HW2 5080   2.956   1.860   3.016
 1709SOL     OW 5081   2.632   3.192   2.163
 1709SOL    HW1 5082   2.586   3.105   2.180
 1709SOL    HW2 5083   2.723   3.189   2.204
 1710SOL     OW 5084   2.480   3.429   3.146
 1710SOL    HW1 5085   2.475   3.511   3.203
 1710SOL    HW2 5086   2.569   3.426   3.101
 1711SOL     OW 5087   3.214   1.914   2.030
 1711SOL    HW1 5088   3.249   1.873   1.946
 1711SOL    HW2 5089   3.124   1.876   2.050
 1712SOL     OW 5090   3.162   2.315   2.553
 1712SOL    HW1 5091   3.103   2.395   2.557
 1712SOL    HW2 5092   3.177   2.280   2.646
 1713SOL     OW 5093   3.455   2.083   2.744
 1713SOL    HW1 5094   3.371   2.082   2.798
 1713SOL    HW2 5095   3.457   2.166   2.688
 1714SOL     OW 5096   1.901   2.939   2.162
 1714SOL    HW1 5097   2.000   2.928   2.153
 1714SOL    HW2 5098   1.861   2.853   2.194
 1715SOL     OW 5099   2.737   3.508   2.199
 1715SOL    HW1 5100   2.660   3.473   2.145
 1715SOL    HW2 5101   2.705   3.579   2.261
 1716SOL     OW 5102   2.765   3.810   1.995
 1716SOL    HW1 5103   2.816   3.811   1.909
 1716SOL    HW2 5104   2.821   3.768   2.066
 1717SOL     OW 5105   3.796   3.890   4.042
 1717SOL    HW1 5106   3.779   3.973   3.988
 1717SOL    HW2 5107   3.886   3.853   4.020
   3.83925   3.83925   3.83925
