title                   = Omigaran production MD (10 ns)
; Run parameters
integrator              = md        ; leap-frog integrator
nsteps                  = 2500000   ; 0.002 * 2500000 = 5000 ps (5 ns)
dt                      = 0.002     ; 2 fs
; Output control
nstxout                 = 0         ; suppress bulky .trr file by specifying
nstvout                 = 0         ; 0 for output frequency of nstxout,
nstfout                 = 0         ; nstvout, and nstfout
nstenergy               = 5000      ; save energies every 10.0 ps
nstlog                  = 5000      ; update log file every 10.0 ps
nstxout-compressed      = 5000      ; save compressed coordinates every 10.0 ps
compressed-x-grps       = System    ; save the whole system
; Bond parameters
continuation            = yes       ; Restarting after NPT
constraint_algorithm    = lincs     ; holonomic constraints
constraints             = h-bonds   ; bonds involving H are constrained
lincs_iter              = 1         ; accuracy of LINCS
lincs_order             = 4         ; also related to accuracy
; Nonbonded settings
cutoff-scheme           = Verlet    ; Buffered neighbor searching
ns_type                 = grid      ; search neighboring grid cells
nstlist                 = 10        ; 20 fs, largely irrelevant with Verlet scheme
; vdW
rvdw                    = 1.2                     ; short-range van der Waals cutoff (in nm)
vdw-modifier            = Potential-shift-Verlet  ; Amber convention (matches EM/NVT/NPT), not CHARMM force-switch
DispCorr                = EnerPres                ; analytical long-range dispersion correction, per Amber convention
; Electrostatics
rcoulomb                = 1.2       ; short-range electrostatic cutoff (in nm)
coulombtype             = PME       ; Particle Mesh Ewald for long-range electrostatics
pme_order               = 4         ; cubic interpolation
fourierspacing          = 0.16      ; grid spacing for FFT
; Temperature coupling is on
tcoupl                  = V-rescale ; stochastic Bussi thermostat
tc-grps                 = Protein non-Protein   ; separate groups so decoupling would be visible
tau_t                   = 1.0     1.0
ref_t                   = 298     298
; Pressure coupling is on
pcoupl                  = Parrinello-Rahman     ; correct NPT ensemble, appropriate for production
pcoupltype              = isotropic             ; uniform scaling of box vectors
tau_p                   = 5.0                   ; time constant, in ps
ref_p                   = 1.0                   ; reference pressure, in bar
compressibility         = 4.5e-5                ; isothermal compressibility of water, bar^-1
; Periodic boundary conditions
pbc                     = xyz       ; 3-D PBC
; Velocity generation
gen_vel                 = no        ; Velocity generation is off
; NOTE: no 'define = -DPOSRES' here — production must be unrestrained