4QHU_QSPVLIYDDT_UNCAPPED in water
 5107
   43ACE    CH3    1   1.772   2.327   2.716
   43ACE   HH31    2   1.731   2.227   2.714
   43ACE   HH32    3   1.809   2.348   2.815
   43ACE   HH33    4   1.695   2.398   2.687
   43ACE      C    5   1.886   2.337   2.618
   43ACE      O    6   1.931   2.447   2.587
   44VAL      N    7   1.932   2.223   2.566
   44VAL      H    8   1.894   2.136   2.599
   44VAL     CA    9   2.032   2.221   2.459
   44VAL     HA   10   2.036   2.320   2.415
   44VAL     CB   11   2.172   2.192   2.516
   44VAL     HB   12   2.191   2.262   2.597
   44VAL    CG1   13   2.190   2.051   2.570
   44VAL   HG11   14   2.292   2.037   2.603
   44VAL   HG12   15   2.123   2.035   2.655
   44VAL   HG13   16   2.168   1.976   2.494
   44VAL    CG2   17   2.277   2.217   2.408
   44VAL   HG21   18   2.377   2.206   2.450
   44VAL   HG22   19   2.263   2.147   2.326
   44VAL   HG23   20   2.268   2.318   2.370
   44VAL      C   21   1.991   2.127   2.346
   44VAL      O   22   1.950   2.013   2.369
   45LEU      N   23   1.998   2.175   2.222
   45LEU      H   24   2.034   2.268   2.208
   45LEU     CA   25   1.969   2.095   2.103
   45LEU     HA   26   1.881   2.034   2.122
   45LEU     CB   27   1.939   2.190   1.986
   45LEU    HB1   28   1.933   2.131   1.894
   45LEU    HB2   29   2.023   2.258   1.975
   45LEU     CG   30   1.808   2.270   2.001
   45LEU     HG   31   1.805   2.318   2.099
   45LEU    CD1   32   1.798   2.380   1.895
   45LEU   HD11   33   1.697   2.422   1.892
   45LEU   HD12   34   1.867   2.461   1.917
   45LEU   HD13   35   1.823   2.340   1.798
   45LEU    CD2   36   1.690   2.176   1.985
   45LEU   HD21   37   1.597   2.233   1.983
   45LEU   HD22   38   1.703   2.118   1.894
   45LEU   HD23   39   1.684   2.108   2.070
   45LEU      C   40   2.086   2.001   2.073
   45LEU      O   41   2.195   2.047   2.040
   46VAL      N   42   2.062   1.871   2.079
   46VAL      H   43   1.972   1.842   2.115
   46VAL     CA   44   2.163   1.765   2.056
   46VAL     HA   45   2.262   1.811   2.052
   46VAL     CB   46   2.163   1.665   2.173
   46VAL     HB   47   2.230   1.583   2.148
   46VAL    CG1   48   2.217   1.728   2.300
   46VAL   HG11   49   2.219   1.655   2.381
   46VAL   HG12   50   2.319   1.762   2.281
   46VAL   HG13   51   2.155   1.812   2.330
   46VAL    CG2   52   2.024   1.606   2.203
   46VAL   HG21   53   2.031   1.536   2.286
   46VAL   HG22   54   1.954   1.684   2.232
   46VAL   HG23   55   1.987   1.553   2.116
   46VAL      C   56   2.145   1.692   1.923
   46VAL      O   57   2.242   1.643   1.865
   47ILE      N   58   2.021   1.683   1.875
   47ILE      H   59   1.946   1.725   1.928
   47ILE     CA   60   1.982   1.621   1.748
   47ILE     HA   61   2.066   1.626   1.679
   47ILE     CB   62   1.942   1.473   1.765
   47ILE     HB   63   1.860   1.470   1.837
   47ILE    CG2   64   1.890   1.414   1.633
   47ILE   HG21   65   1.873   1.307   1.645
   47ILE   HG22   66   1.794   1.459   1.606
   47ILE   HG23   67   1.962   1.429   1.553
   47ILE    CG1   68   2.055   1.384   1.821
   47ILE   HG11   69   2.013   1.287   1.847
   47ILE   HG12   70   2.093   1.427   1.914
   47ILE     CD   71   2.173   1.359   1.727
   47ILE    HD1   72   2.253   1.308   1.779
   47ILE    HD2   73   2.138   1.294   1.647
   47ILE    HD3   74   2.210   1.452   1.685
   47ILE      C   75   1.867   1.702   1.687
   47ILE      O   76   1.773   1.740   1.757
   48TYR      N   77   1.875   1.724   1.556
   48TYR      H   78   1.952   1.685   1.504
   48TYR     CA   79   1.770   1.785   1.475
   48TYR     HA   80   1.675   1.776   1.528
   48TYR     CB   81   1.802   1.933   1.457
   48TYR    HB1   82   1.896   1.943   1.402
   48TYR    HB2   83   1.817   1.976   1.556
   48TYR     CG   84   1.693   2.012   1.386
   48TYR    CD1   85   1.568   2.029   1.448
   48TYR    HD1   86   1.550   1.984   1.544
   48TYR    CE1   87   1.469   2.107   1.387
   48TYR    HE1   88   1.375   2.126   1.436
   48TYR     CZ   89   1.494   2.166   1.262
   48TYR     OH   90   1.397   2.241   1.202
   48TYR     HH   91   1.434   2.298   1.135
   48TYR    CE2   92   1.618   2.149   1.199
   48TYR    HE2   93   1.639   2.193   1.103
   48TYR    CD2   94   1.719   2.072   1.262
   48TYR    HD2   95   1.814   2.060   1.213
   48TYR      C   96   1.758   1.712   1.341
   48TYR      O   97   1.855   1.650   1.296
   49NME      N   98   1.639   1.716   1.281
   49NME      H   99   1.568   1.775   1.321
   49NME    CH3  100   1.612   1.652   1.152
   49NME   HH31  101   1.505   1.639   1.138
   49NME   HH32  102   1.653   1.713   1.072
   49NME   HH33  103   1.660   1.554   1.149
   50SOL     OW  104   0.234   0.627   0.115
   50SOL    HW1  105   0.141   0.624   0.154
   50SOL    HW2  106   0.229   0.630   0.016
   51SOL     OW  107   0.204   0.279   0.994
   51SOL    HW1  108   0.244   0.243   1.078
   51SOL    HW2  109   0.109   0.249   0.986
   52SOL     OW  110   3.858   0.392   0.630
   52SOL    HW1  111   3.769   0.398   0.677
   52SOL    HW2  112   3.852   0.326   0.555
   53SOL     OW  113   0.569   1.294   1.183
   53SOL    HW1  114   0.478   1.289   1.142
   53SOL    HW2  115   0.585   1.386   1.217
   54SOL     OW  116   1.564   1.512   0.703
   54SOL    HW1  117   1.517   1.489   0.788
   54SOL    HW2  118   1.496   1.520   0.629
   55SOL     OW  119   1.133   0.702   0.697
   55SOL    HW1  120   1.185   0.786   0.680
   55SOL    HW2  121   1.082   0.711   0.783
   56SOL     OW  122   1.772   0.600   0.209
   56SOL    HW1  123   1.736   0.600   0.115
   56SOL    HW2  124   1.729   0.527   0.261
   57SOL     OW  125   0.748   1.142   1.040
   57SOL    HW1  126   0.679   1.176   1.104
   57SOL    HW2  127   0.790   1.220   0.993
   58SOL     OW  128   0.871   0.768   1.820
   58SOL    HW1  129   0.858   0.836   1.892
   58SOL    HW2  130   0.895   0.813   1.735
   59SOL     OW  131   0.683   1.000   0.650
   59SOL    HW1  132   0.754   0.989   0.720
   59SOL    HW2  133   0.608   1.055   0.687
   60SOL     OW  134   0.711   1.154   1.816
   60SOL    HW1  135   0.763   1.233   1.848
   60SOL    HW2  136   0.625   1.184   1.776
   61SOL     OW  137   0.326   1.423   1.066
   61SOL    HW1  138   0.251   1.381   1.016
   61SOL    HW2  139   0.382   1.477   1.002
   62SOL     OW  140   1.455   1.471   1.368
   62SOL    HW1  141   1.479   1.568   1.365
   62SOL    HW2  142   1.381   1.456   1.434
   63SOL     OW  143   0.451   0.396   1.483
   63SOL    HW1  144   0.532   0.338   1.488
   63SOL    HW2  145   0.369   0.340   1.495
   64SOL     OW  146   1.612   0.450   0.739
   64SOL    HW1  147   1.533   0.468   0.682
   64SOL    HW2  148   1.625   0.526   0.803
   65SOL     OW  149   0.221   1.712   0.475
   65SOL    HW1  150   0.238   1.795   0.528
   65SOL    HW2  151   0.292   1.703   0.404
   66SOL     OW  152   1.136   1.341   1.698
   66SOL    HW1  153   1.180   1.339   1.788
   66SOL    HW2  154   1.080   1.258   1.687
   67SOL     OW  155   0.232   1.443   0.532
   67SOL    HW1  156   0.213   1.541   0.532
   67SOL    HW2  157   0.168   1.397   0.593
   68SOL     OW  158   0.255   1.086   0.894
   68SOL    HW1  159   0.262   0.993   0.931
   68SOL    HW2  160   0.192   1.140   0.950
   69SOL     OW  161   0.606   1.793   1.431
   69SOL    HW1  162   0.521   1.770   1.477
   69SOL    HW2  163   0.634   1.886   1.456
   70SOL     OW  164   0.584   0.986   0.145
   70SOL    HW1  165   0.626   1.029   0.065
   70SOL    HW2  166   0.629   1.018   0.228
   71SOL     OW  167   1.594   0.105   1.468
   71SOL    HW1  168   1.611   0.182   1.406
   71SOL    HW2  169   1.591   0.139   1.562
   72SOL     OW  170   0.097   0.661   0.551
   72SOL    HW1  171   0.081   0.565   0.575
   72SOL    HW2  172   0.098   0.716   0.634
   73SOL     OW  173   1.847   1.755   0.326
   73SOL    HW1  174   1.914   1.722   0.393
   73SOL    HW2  175   1.865   1.851   0.307
   74SOL     OW  176   0.022   1.610   0.105
   74SOL    HW1  177   0.022   1.513   0.130
   74SOL    HW2  178  -0.018   1.663   0.180
   75SOL     OW  179   1.691   0.921   0.646
   75SOL    HW1  180   1.776   0.871   0.628
   75SOL    HW2  181   1.667   0.975   0.565
   76SOL     OW  182   1.651   1.105   0.431
   76SOL    HW1  183   1.738   1.106   0.383
   76SOL    HW2  184   1.653   1.171   0.506
   77SOL     OW  185   0.132   0.747   1.583
   77SOL    HW1  186   0.231   0.759   1.581
   77SOL    HW2  187   0.088   0.834   1.603
   78SOL     OW  188   0.611   1.389   0.734
   78SOL    HW1  189   0.563   1.301   0.747
   78SOL    HW2  190   0.598   1.420   0.640
   79SOL     OW  191   1.283   1.233   1.424
   79SOL    HW1  192   1.313   1.164   1.358
   79SOL    HW2  193   1.339   1.226   1.507
   80SOL     OW  194   0.822   0.004   0.514
   80SOL    HW1  195   0.863   0.091   0.490
   80SOL    HW2  196   0.722   0.013   0.514
   81SOL     OW  197   0.192   0.959   1.275
   81SOL    HW1  198   0.281   0.916   1.261
   81SOL    HW2  199   0.123   0.914   1.218
   82SOL     OW  200   1.519   1.005   0.203
   82SOL    HW1  201   1.448   0.942   0.237
   82SOL    HW2  202   1.573   1.038   0.280
   83SOL     OW  203   1.200   1.813   1.620
   83SOL    HW1  204   1.184   1.878   1.547
   83SOL    HW2  205   1.202   1.720   1.583
   84SOL     OW  206   0.325   0.252   1.808
   84SOL    HW1  207   0.385   0.327   1.838
   84SOL    HW2  208   0.233   0.266   1.844
   85SOL     OW  209   1.427   1.430   0.923
   85SOL    HW1  210   1.383   1.443   1.011
   85SOL    HW2  211   1.439   1.332   0.906
   86SOL     OW  212   1.652   1.747   0.574
   86SOL    HW1  213   1.634   1.716   0.480
   86SOL    HW2  214   1.632   1.672   0.638
   87SOL     OW  215   0.595   0.723   0.272
   87SOL    HW1  216   0.602   0.808   0.220
   87SOL    HW2  217   0.527   0.733   0.344
   88SOL     OW  218   1.278   0.354   0.932
   88SOL    HW1  219   1.184   0.321   0.937
   88SOL    HW2  220   1.335   0.301   0.995
   89SOL     OW  221   1.586   1.670   0.308
   89SOL    HW1  222   1.682   1.698   0.304
   89SOL    HW2  223   1.553   1.652   0.215
   90SOL     OW  224   0.791   0.613   1.452
   90SOL    HW1  225   0.765   0.589   1.545
   90SOL    HW2  226   0.751   0.547   1.388
   91SOL     OW  227   1.391   0.471   1.679
   91SOL    HW1  228   1.391   0.520   1.766
   91SOL    HW2  229   1.458   0.396   1.684
   92SOL     OW  230   0.954   0.886   1.582
   92SOL    HW1  231   1.012   0.813   1.545
   92SOL    HW2  232   0.900   0.926   1.508
   93SOL     OW  233   0.994   0.409   1.231
   93SOL    HW1  234   0.907   0.431   1.275
   93SOL    HW2  235   0.977   0.361   1.145
   94SOL     OW  236   1.051   0.698   0.426
   94SOL    HW1  237   1.071   0.693   0.523
   94SOL    HW2  238   0.964   0.652   0.407
   95SOL     OW  239   0.093   0.815   0.775
   95SOL    HW1  240   0.177   0.809   0.829
   95SOL    HW2  241   0.040   0.895   0.804
   96SOL     OW  242   0.130   1.867   1.588
   96SOL    HW1  243   0.133   1.836   1.683
   96SOL    HW2  244   0.042   1.844   1.548
   97SOL     OW  245   0.888   0.355   0.201
   97SOL    HW1  246   0.931   0.415   0.133
   97SOL    HW2  247   0.885   0.262   0.166
   98SOL     OW  248   1.703   0.573   1.824
   98SOL    HW1  249   1.666   0.652   1.775
   98SOL    HW2  250   1.734   0.504   1.758
   99SOL     OW  251   1.379   1.143   0.536
   99SOL    HW1  252   1.462   1.125   0.483
   99SOL    HW2  253   1.322   1.209   0.487
  100SOL     OW  254   0.549   0.187   0.896
  100SOL    HW1  255   0.556   0.211   0.992
  100SOL    HW2  256   0.553   0.269   0.840
  101SOL     OW  257   0.997   1.444   0.467
  101SOL    HW1  258   0.962   1.523   0.417
  101SOL    HW2  259   0.978   1.456   0.565
  102SOL     OW  260   0.347   1.807   0.868
  102SOL    HW1  261   0.392   1.718   0.875
  102SOL    HW2  262   0.412   1.880   0.888
  103SOL     OW  263   1.799   1.059   0.870
  103SOL    HW1  264   1.748   1.036   0.787
  103SOL    HW2  265   1.735   1.062   0.948
  104SOL     OW  266   1.223   1.534   1.516
  104SOL    HW1  267   1.206   1.462   1.583
  104SOL    HW2  268   1.154   1.530   1.444
  105SOL     OW  269   0.320   0.950   0.242
  105SOL    HW1  270   0.409   0.974   0.202
  105SOL    HW2  271   0.297   0.856   0.219
  106SOL     OW  272   1.483   0.746   0.723
  106SOL    HW1  273   1.474   0.702   0.812
  106SOL    HW2  274   1.563   0.807   0.724
  107SOL     OW  275   0.467   1.262   1.730
  107SOL    HW1  276   0.440   1.269   1.634
  107SOL    HW2  277   0.385   1.263   1.788
  108SOL     OW  278   1.105   1.778   0.214
  108SOL    HW1  279   1.041   1.731   0.276
  108SOL    HW2  280   1.142   1.712   0.150
  109SOL     OW  281   0.200   0.283   1.491
  109SOL    HW1  282   0.126   0.349   1.476
  109SOL    HW2  283   0.181   0.230   1.574
  110SOL     OW  284   1.627   1.378   0.088
  110SOL    HW1  285   1.586   1.468   0.078
  110SOL    HW2  286   1.560   1.308   0.063
  111SOL     OW  287   0.466   1.733   0.321
  111SOL    HW1  288   0.503   1.799   0.387
  111SOL    HW2  289   0.539   1.701   0.261
  112SOL     OW  290   1.402   0.103   0.430
  112SOL    HW1  291   1.390   0.079   0.333
  112SOL    HW2  292   1.499   0.117   0.449
  113SOL     OW  293   0.256   1.790   1.231
  113SOL    HW1  294   0.305   1.715   1.276
  113SOL    HW2  295   0.238   1.765   1.136
  114SOL     OW  296   0.938   1.700   0.895
  114SOL    HW1  297   1.022   1.652   0.920
  114SOL    HW2  298   0.891   1.650   0.823
  115SOL     OW  299   0.390   0.689   0.475
  115SOL    HW1  300   0.412   0.592   0.487
  115SOL    HW2  301   0.293   0.704   0.492
  116SOL     OW  302   1.535   0.224   1.728
  116SOL    HW1  303   1.543   0.244   1.825
  116SOL    HW2  304   1.457   0.164   1.712
  117SOL     OW  305   0.617   0.108   0.101
  117SOL    HW1  306   0.716   0.097   0.111
  117SOL    HW2  307   0.589   0.073   0.012
  118SOL     OW  308   0.768   0.274   1.761
  118SOL    HW1  309   0.848   0.214   1.754
  118SOL    HW2  310   0.711   0.246   1.838
  119SOL     OW  311   0.875   1.516   1.193
  119SOL    HW1  312   0.856   1.481   1.101
  119SOL    HW2  313   0.947   1.461   1.235
  120SOL     OW  314   1.341   0.588   1.434
  120SOL    HW1  315   1.370   0.554   1.523
  120SOL    HW2  316   1.375   0.681   1.421
  121SOL     OW  317   0.817   1.392   0.940
  121SOL    HW1  318   0.907   1.379   0.897
  121SOL    HW2  319   0.747   1.396   0.869
  122SOL     OW  320   0.927   0.508   0.898
  122SOL    HW1  321   0.901   0.501   0.802
  122SOL    HW2  322   0.959   0.418   0.930
  123SOL     OW  323   0.544   0.042   0.486
  123SOL    HW1  324   0.465   0.040   0.547
  123SOL    HW2  325   0.542   0.125   0.431
  124SOL     OW  326   1.427   1.198   0.030
  124SOL    HW1  327   1.458   1.122   0.086
  124SOL    HW2  328   1.340   1.233   0.064
  125SOL     OW  329   0.280   0.041   0.198
  125SOL    HW1  330   0.343   0.110   0.164
  125SOL    HW2  331   0.332  -0.038   0.231
  126SOL     OW  332   0.946   0.249   0.457
  126SOL    HW1  333   0.912   0.292   0.373
  126SOL    HW2  334   1.044   0.265   0.465
  127SOL     OW  335   1.079   0.682   1.456
  127SOL    HW1  336   1.003   0.617   1.462
  127SOL    HW2  337   1.166   0.632   1.451
  128SOL     OW  338   1.214   1.571   0.801
  128SOL    HW1  339   1.238   1.640   0.732
  128SOL    HW2  340   1.298   1.535   0.842
  129SOL     OW  341   0.465   1.150   0.731
  129SOL    HW1  342   0.394   1.129   0.799
  129SOL    HW2  343   0.427   1.138   0.639
  130SOL     OW  344   1.266   1.792   0.608
  130SOL    HW1  345   1.318   1.855   0.551
  130SOL    HW2  346   1.190   1.841   0.651
  131SOL     OW  347   1.017   0.534   0.027
  131SOL    HW1  348   0.987   0.621  -0.010
  131SOL    HW2  349   1.091   0.549   0.092
  132SOL     OW  350   0.082   0.549   1.394
  132SOL    HW1  351   0.175   0.549   1.356
  132SOL    HW2  352   0.073   0.624   1.460
  133SOL     OW  353   0.558   0.230   1.171
  133SOL    HW1  354   0.610   0.159   1.218
  133SOL    HW2  355   0.462   0.224   1.196
  134SOL     OW  356   0.867   0.460   0.636
  134SOL    HW1  357   0.820   0.521   0.572
  134SOL    HW2  358   0.892   0.375   0.589
  135SOL     OW  359   0.989   0.026   0.768
  135SOL    HW1  360   0.938   0.031   0.682
  135SOL    HW2  361   0.974  -0.063   0.810
  136SOL     OW  362   1.445   1.162   0.857
  136SOL    HW1  363   1.371   1.095   0.861
  136SOL    HW2  364   1.476   1.172   0.763
  137SOL     OW  365   1.467   0.607   0.973
  137SOL    HW1  366   1.407   0.527   0.972
  137SOL    HW2  367   1.529   0.601   1.051
  138SOL     OW  368   1.843   0.809   0.376
  138SOL    HW1  369   1.900   0.761   0.443
  138SOL    HW2  370   1.816   0.746   0.303
  139SOL     OW  371   0.487   1.416   0.155
  139SOL    HW1  372   0.411   1.387   0.213
  139SOL    HW2  373   0.469   1.386   0.061
  140SOL     OW  374   1.673   1.266   0.645
  140SOL    HW1  375   1.773   1.263   0.656
  140SOL    HW2  376   1.640   1.358   0.663
  141SOL     OW  377   1.389   0.575   0.075
  141SOL    HW1  378   1.325   0.557   0.150
  141SOL    HW2  379   1.463   0.508   0.078
  142SOL     OW  380   0.525   0.259   0.313
  142SOL    HW1  381   0.566   0.202   0.241
  142SOL    HW2  382   0.504   0.349   0.275
  143SOL     OW  383   1.052   1.351   1.338
  143SOL    HW1  384   0.970   1.321   1.387
  143SOL    HW2  385   1.133   1.309   1.378
  144SOL     OW  386   1.136   1.220   1.105
  144SOL    HW1  387   1.073   1.250   1.177
  144SOL    HW2  388   1.099   1.245   1.016
  145SOL     OW  389   1.624   1.092   1.075
  145SOL    HW1  390   1.620   1.154   1.154
  145SOL    HW2  391   1.548   1.112   1.013
  146SOL     OW  392   0.909   0.106   1.390
  146SOL    HW1  393   0.933   0.074   1.299
  146SOL    HW2  394   0.990   0.144   1.435
  147SOL     OW  395   0.980   1.115   1.721
  147SOL    HW1  396   0.885   1.134   1.748
  147SOL    HW2  397   0.982   1.032   1.664
  148SOL     OW  398   0.715   1.061   0.374
  148SOL    HW1  399   0.695   1.044   0.471
  148SOL    HW2  400   0.795   1.008   0.347
  149SOL     OW  401   0.423   0.813   1.253
  149SOL    HW1  402   0.496   0.826   1.321
  149SOL    HW2  403   0.383   0.722   1.264
  150SOL     OW  404   1.263   0.376   1.279
  150SOL    HW1  405   1.300   0.455   1.327
  150SOL    HW2  406   1.168   0.395   1.253
  151SOL     OW  407   0.060   1.572   1.362
  151SOL    HW1  408   0.037   1.649   1.301
  151SOL    HW2  409   0.160   1.562   1.366
  152SOL     OW  410   0.349   1.115   0.484
  152SOL    HW1  411   0.344   1.196   0.425
  152SOL    HW2  412   0.348   1.033   0.427
  153SOL     OW  413   0.548   0.543   0.863
  153SOL    HW1  414   0.562   0.602   0.783
  153SOL    HW2  415   0.617   0.564   0.932
  154SOL     OW  416   1.245   1.353   0.395
  154SOL    HW1  417   1.307   1.426   0.425
  154SOL    HW2  418   1.152   1.373   0.425
  155SOL     OW  419   1.285   1.456   1.151
  155SOL    HW1  420   1.342   1.445   1.233
  155SOL    HW2  421   1.227   1.375   1.141
  156SOL     OW  422   1.580   0.624   0.478
  156SOL    HW1  423   1.528   0.668   0.551
  156SOL    HW2  424   1.625   0.694   0.422
  157SOL     OW  425   0.345   1.528   1.312
  157SOL    HW1  426   0.328   1.484   1.224
  157SOL    HW2  427   0.443   1.543   1.324
  158SOL     OW  428   0.416   0.742   1.600
  158SOL    HW1  429   0.479   0.792   1.541
  158SOL    HW2  430   0.455   0.653   1.623
  159SOL     OW  431   1.604   0.784   1.684
  159SOL    HW1  432   1.512   0.823   1.683
  159SOL    HW2  433   1.659   0.828   1.613
  160SOL     OW  434   1.003   0.111   1.756
  160SOL    HW1  435   1.055   0.193   1.733
  160SOL    HW2  436   1.040   0.033   1.704
  161SOL     OW  437   0.489   0.038   1.754
  161SOL    HW1  438   0.454  -0.026   1.685
  161SOL    HW2  439   0.426   0.116   1.762
  162SOL     OW  440   0.584   0.872   1.034
  162SOL    HW1  441   0.619   0.965   1.030
  162SOL    HW2  442   0.524   0.861   1.113
  163SOL     OW  443   1.355   0.857   1.026
  163SOL    HW1  444   1.265   0.850   0.983
  163SOL    HW2  445   1.402   0.770   1.019
  164SOL     OW  446   1.200   0.526   0.268
  164SOL    HW1  447   1.212   0.443   0.324
  164SOL    HW2  448   1.154   0.596   0.323
  165SOL     OW  449   0.294   0.187   1.242
  165SOL    HW1  450   0.262   0.229   1.327
  165SOL    HW2  451   0.280   0.088   1.246
  166SOL     OW  452   0.043   1.309   1.276
  166SOL    HW1  453   0.076   1.249   1.349
  166SOL    HW2  454   0.040   1.403   1.309
  167SOL     OW  455   0.726   0.632   1.055
  167SOL    HW1  456   0.802   0.611   0.993
  167SOL    HW2  457   0.691   0.724   1.035
  168SOL     OW  458   1.730   0.966   1.851
  168SOL    HW1  459   1.687   0.896   1.793
  168SOL    HW2  460   1.673   0.980   1.932
  169SOL     OW  461   0.311   0.044   0.636
  169SOL    HW1  462   0.295   0.140   0.659
  169SOL    HW2  463   0.296  -0.013   0.716
  170SOL     OW  464   1.625   0.381   0.357
  170SOL    HW1  465   1.651   0.307   0.419
  170SOL    HW2  466   1.597   0.461   0.410
  171SOL     OW  467   1.024   0.756   0.959
  171SOL    HW1  468   1.020   0.777   1.057
  171SOL    HW2  469   0.997   0.661   0.945
  172SOL     OW  470   0.986   1.568   1.716
  172SOL    HW1  471   0.966   1.612   1.628
  172SOL    HW2  472   1.028   1.479   1.699
  173SOL     OW  473   0.351   0.919   1.802
  173SOL    HW1  474   0.430   0.942   1.859
  173SOL    HW2  475   0.378   0.852   1.733
  174SOL     OW  476   1.527   0.278   0.116
  174SOL    HW1  477   1.458   0.210   0.137
  174SOL    HW2  478   1.566   0.315   0.201
  175SOL     OW  479   1.292   0.825   3.860
  175SOL    HW1  480   1.333   0.735   3.875
  175SOL    HW2  481   1.330   0.866   3.777
  176SOL     OW  482   1.066   1.335   0.855
  176SOL    HW1  483   1.070   1.257   0.792
  176SOL    HW2  484   1.123   1.409   0.820
  177SOL     OW  485   0.312   0.807   0.945
  177SOL    HW1  486   0.409   0.831   0.939
  177SOL    HW2  487   0.304   0.713   0.978
  178SOL     OW  488   0.327   0.522   1.013
  178SOL    HW1  489   0.284   0.433   0.998
  178SOL    HW2  490   0.407   0.530   0.954
  179SOL     OW  491   1.134   0.371   1.694
  179SOL    HW1  492   1.081   0.429   1.756
  179SOL    HW2  493   1.226   0.409   1.684
  180SOL     OW  494   1.150   0.210   1.475
  180SOL    HW1  495   1.141   0.273   1.552
  180SOL    HW2  496   1.196   0.257   1.399
  181SOL     OW  497   3.836   1.321   0.179
  181SOL    HW1  498   3.740   1.335   0.155
  181SOL    HW2  499   3.847   1.230   0.220
  182SOL     OW  500   0.066   1.797   0.926
  182SOL    HW1  501   0.021   1.714   0.894
  182SOL    HW2  502   0.162   1.797   0.897
  183SOL     OW  503   0.494   1.575   0.906
  183SOL    HW1  504   0.563   1.643   0.932
  183SOL    HW2  505   0.535   1.508   0.844
  184SOL     OW  506   0.978   0.795   1.225
  184SOL    HW1  507   1.037   0.770   1.302
  184SOL    HW2  508   0.888   0.752   1.237
  185SOL     OW  509   0.011   0.545   1.126
  185SOL    HW1  510   0.094   0.538   1.072
  185SOL    HW2  511   0.034   0.547   1.223
  186SOL     OW  512   0.185   0.522   1.725
  186SOL    HW1  513   0.253   0.478   1.667
  186SOL    HW2  514   0.147   0.602   1.679
  187SOL     OW  515   1.376   0.935   1.656
  187SOL    HW1  516   1.393   1.034   1.658
  187SOL    HW2  517   1.377   0.904   1.561
  188SOL     OW  518   0.817   0.575   0.361
  188SOL    HW1  519   0.828   0.495   0.302
  188SOL    HW2  520   0.739   0.629   0.330
  189SOL     OW  521   1.643   0.603   1.183
  189SOL    HW1  522   1.626   0.544   1.261
  189SOL    HW2  523   1.734   0.585   1.146
  190SOL     OW  524   0.270   1.554   1.735
  190SOL    HW1  525   0.227   1.625   1.790
  190SOL    HW2  526   0.254   1.465   1.777
  191SOL     OW  527   0.704   0.452   1.255
  191SOL    HW1  528   0.647   0.374   1.230
  191SOL    HW2  529   0.703   0.520   1.181
  192SOL     OW  530   0.929   1.680   1.467
  192SOL    HW1  531   0.899   1.632   1.385
  192SOL    HW2  532   0.919   1.778   1.453
  193SOL     OW  533   0.465   0.495   0.193
  193SOL    HW1  534   0.528   0.569   0.216
  193SOL    HW2  535   0.375   0.533   0.170
  194SOL     OW  536   0.147   1.140   1.470
  194SOL    HW1  537   0.134   1.094   1.557
  194SOL    HW2  538   0.165   1.072   1.399
  195SOL     OW  539   1.317   1.045   1.220
  195SOL    HW1  540   1.346   0.977   1.152
  195SOL    HW2  541   1.249   1.106   1.179
  196SOL     OW  542   1.309   0.855   0.300
  196SOL    HW1  543   1.233   0.825   0.357
  196SOL    HW2  544   1.286   0.840   0.204
  197SOL     OW  545   1.237   1.729   1.128
  197SOL    HW1  546   1.312   1.758   1.069
  197SOL    HW2  547   1.239   1.630   1.139
  198SOL     OW  548   0.070   1.243   1.014
  198SOL    HW1  549   0.061   1.267   1.111
  198SOL    HW2  550  -0.017   1.209   0.980
  199SOL     OW  551   0.679   1.672   1.734
  199SOL    HW1  552   0.615   1.749   1.733
  199SOL    HW2  553   0.746   1.685   1.661
  200SOL     OW  554   0.898   0.088   0.113
  200SOL    HW1  555   0.945   0.080   0.025
  200SOL    HW2  556   0.943   0.030   0.180
  201SOL     OW  557   1.717   0.146   0.491
  201SOL    HW1  558   1.794   0.137   0.428
  201SOL    HW2  559   1.714   0.067   0.551
  202SOL     OW  560   1.395   1.571   0.486
  202SOL    HW1  561   1.459   1.601   0.416
  202SOL    HW2  562   1.341   1.649   0.519
  203SOL     OW  563   0.141   1.779   1.847
  203SOL    HW1  564   0.083   1.716   1.898
  203SOL    HW2  565   0.192   1.837   1.911
  204SOL     OW  566   1.282   0.927   0.667
  204SOL    HW1  567   1.357   0.862   0.681
  204SOL    HW2  568   1.315   1.004   0.613
  205SOL     OW  569   0.805   1.277   1.428
  205SOL    HW1  570   0.776   1.320   1.514
  205SOL    HW2  571   0.735   1.292   1.358
  206SOL     OW  572   0.672   1.612   0.166
  206SOL    HW1  573   0.681   1.639   0.070
  206SOL    HW2  574   0.613   1.531   0.172
  207SOL     OW  575   1.848   0.142   0.964
  207SOL    HW1  576   1.867   0.049   0.932
  207SOL    HW2  577   1.759   0.171   0.930
  208SOL     OW  578   0.265   0.305   0.719
  208SOL    HW1  579   0.180   0.348   0.688
  208SOL    HW2  580   0.264   0.297   0.818
  209SOL     OW  581   1.208   1.602   0.025
  209SOL    HW1  582   1.199   1.508   0.057
  209SOL    HW2  583   1.154   1.613  -0.059
  210SOL     OW  584   0.823   1.009   1.377
  210SOL    HW1  585   0.873   0.994   1.292
  210SOL    HW2  586   0.821   1.107   1.398
  211SOL     OW  587   0.924   0.916   0.293
  211SOL    HW1  588   0.978   0.942   0.213
  211SOL    HW2  589   0.970   0.841   0.340
  212SOL     OW  590   1.489   1.625   0.041
  212SOL    HW1  591   1.390   1.614   0.033
  212SOL    HW2  592   1.529   1.634  -0.050
  213SOL     OW  593   0.368   1.302   1.486
  213SOL    HW1  594   0.357   1.385   1.430
  213SOL    HW2  595   0.288   1.243   1.474
  214SOL     OW  596   1.621   1.268   1.280
  214SOL    HW1  597   1.716   1.295   1.294
  214SOL    HW2  598   1.561   1.339   1.316
  215SOL     OW  599   1.058   1.106   0.713
  215SOL    HW1  600   0.982   1.055   0.753
  215SOL    HW2  601   1.125   1.041   0.677
  216SOL     OW  602   1.021   0.237   0.966
  216SOL    HW1  603   1.008   0.189   0.879
  216SOL    HW2  604   1.017   0.171   1.041
  217SOL     OW  605   0.605   1.486   0.481
  217SOL    HW1  606   0.652   1.433   0.410
  217SOL    HW2  607   0.531   1.539   0.439
  218SOL     OW  608   1.730   0.394   1.380
  218SOL    HW1  609   1.803   0.463   1.379
  218SOL    HW2  610   1.754   0.320   1.318
  219SOL     OW  611   0.261   1.341   0.289
  219SOL    HW1  612   0.170   1.336   0.250
  219SOL    HW2  613   0.256   1.382   0.380
  220SOL     OW  614   0.106   1.012   1.716
  220SOL    HW1  615   0.031   0.993   1.779
  220SOL    HW2  616   0.193   0.983   1.756
  221SOL     OW  617   0.672   0.210   1.499
  221SOL    HW1  618   0.754   0.175   1.454
  221SOL    HW2  619   0.694   0.234   1.594
  222SOL     OW  620   0.075   0.344   3.837
  222SOL    HW1  621  -0.024   0.330   3.825
  222SOL    HW2  622   0.104   0.422   3.781
  223SOL     OW  623   1.425   0.857   1.397
  223SOL    HW1  624   1.371   0.921   1.341
  223SOL    HW2  625   1.520   0.860   1.368
  224SOL     OW  626   0.090   0.214   0.338
  224SOL    HW1  627   0.096   0.286   0.269
  224SOL    HW2  628   0.163   0.146   0.323
  225SOL     OW  629   1.184   1.344   0.120
  225SOL    HW1  630   1.089   1.318   0.107
  225SOL    HW2  631   1.207   1.338   0.217
  226SOL     OW  632   0.623   0.830   1.434
  226SOL    HW1  633   0.680   0.911   1.419
  226SOL    HW2  634   0.681   0.749   1.444
  227SOL     OW  635   0.721   0.559   1.705
  227SOL    HW1  636   0.764   0.627   1.763
  227SOL    HW2  637   0.744   0.467   1.738
  228SOL     OW  638   1.456   1.202   1.640
  228SOL    HW1  639   1.445   1.211   1.739
  228SOL    HW2  640   1.553   1.207   1.616
  229SOL     OW  641   0.376   1.739   1.564
  229SOL    HW1  642   0.291   1.789   1.548
  229SOL    HW2  643   0.357   1.654   1.614
  230SOL     OW  644   1.670   0.878   1.253
  230SOL    HW1  645   1.662   0.787   1.213
  230SOL    HW2  646   1.655   0.947   1.182
  231SOL     OW  647   1.221   0.315   0.461
  231SOL    HW1  648   1.283   0.236   0.453
  231SOL    HW2  649   1.247   0.370   0.539
  232SOL     OW  650   0.586   0.737   0.668
  232SOL    HW1  651   0.628   0.827   0.657
  232SOL    HW2  652   0.515   0.724   0.598
  233SOL     OW  653   1.755   0.364   1.650
  233SOL    HW1  654   1.743   0.381   1.552
  233SOL    HW2  655   1.680   0.306   1.683
  234SOL     OW  656   1.740   0.934   1.509
  234SOL    HW1  657   1.801   1.012   1.524
  234SOL    HW2  658   1.725   0.922   1.411
  235SOL     OW  659   0.882   1.363   0.031
  235SOL    HW1  660   0.828   1.371   0.115
  235SOL    HW2  661   0.875   1.448  -0.021
  236SOL     OW  662   0.663   1.788   0.943
  236SOL    HW1  663   0.637   1.881   0.920
  236SOL    HW2  664   0.761   1.776   0.931
  237SOL     OW  665   0.868   0.969   0.857
  237SOL    HW1  666   0.919   0.892   0.893
  237SOL    HW2  667   0.827   1.021   0.932
  238SOL     OW  668   1.071   0.980   0.071
  238SOL    HW1  669   1.055   1.042  -0.005
  238SOL    HW2  670   1.153   0.926   0.053
  239SOL     OW  671   1.850   1.554   0.858
  239SOL    HW1  672   1.773   1.544   0.795
  239SOL    HW2  673   1.867   1.466   0.903
  240SOL     OW  674   0.231   1.304   1.859
  240SOL    HW1  675   0.159   1.240   1.829
  240SOL    HW2  676   0.225   1.315   1.958
  241SOL     OW  677   0.091   1.236   0.659
  241SOL    HW1  678   0.096   1.197   0.751
  241SOL    HW2  679   0.153   1.187   0.598
  242SOL     OW  680   0.682   1.408   1.634
  242SOL    HW1  681   0.601   1.357   1.662
  242SOL    HW2  682   0.678   1.501   1.670
  243SOL     OW  683   1.802   0.181   1.234
  243SOL    HW1  684   1.824   0.092   1.272
  243SOL    HW2  685   1.819   0.180   1.135
  244SOL     OW  686   0.428   0.428   0.525
  244SOL    HW1  687   0.467   0.359   0.463
  244SOL    HW2  688   0.381   0.382   0.600
  245SOL     OW  689   0.332   0.555   1.289
  245SOL    HW1  690   0.391   0.500   1.348
  245SOL    HW2  691   0.347   0.529   1.194
  246SOL     OW  692   0.827   1.579   0.678
  246SOL    HW1  693   0.815   1.639   0.599
  246SOL    HW2  694   0.749   1.516   0.684
  247SOL     OW  695   1.428   0.225   1.118
  247SOL    HW1  696   1.467   0.146   1.164
  247SOL    HW2  697   1.373   0.278   1.183
  248SOL     OW  698   1.009   3.852   1.143
  248SOL    HW1  699   0.947   3.785   1.103
  248SOL    HW2  700   1.100   3.812   1.150
  249SOL     OW  701   0.776   1.329   0.313
  249SOL    HW1  702   0.745   1.235   0.326
  249SOL    HW2  703   0.860   1.344   0.366
  250SOL     OW  704   0.623   1.558   1.289
  250SOL    HW1  705   0.621   1.644   1.340
  250SOL    HW2  706   0.713   1.546   1.247
  251SOL     OW  707   1.348   0.040   0.166
  251SOL    HW1  708   1.392  -0.013   0.094
  251SOL    HW2  709   1.261  -0.002   0.190
  252SOL     OW  710   1.294   0.464   0.681
  252SOL    HW1  711   1.240   0.548   0.683
  252SOL    HW2  712   1.291   0.420   0.771
  253SOL     OW  713   1.602   0.216   0.887
  253SOL    HW1  714   1.530   0.222   0.956
  253SOL    HW2  715   1.597   0.295   0.826
  254SOL     OW  716   0.042   1.066   0.289
  254SOL    HW1  717   0.138   1.042   0.279
  254SOL    HW2  718  -0.010   0.987   0.321
  255SOL     OW  719   0.884   1.661   0.345
  255SOL    HW1  720   0.809   1.636   0.283
  255SOL    HW2  721   0.856   1.738   0.401
  256SOL     OW  722   0.230   0.622   1.982
  256SOL    HW1  723   0.141   0.624   2.027
  256SOL    HW2  724   0.218   0.596   1.886
  257SOL     OW  725   0.204   0.279   2.856
  257SOL    HW1  726   0.244   0.243   2.940
  257SOL    HW2  727   0.109   0.249   2.848
  258SOL     OW  728   3.855   0.393   2.495
  258SOL    HW1  729   3.769   0.404   2.544
  258SOL    HW2  730   3.844   0.324   2.423
  259SOL     OW  731   0.567   1.294   3.044
  259SOL    HW1  732   0.476   1.291   3.003
  259SOL    HW2  733   0.585   1.386   3.079
  260SOL     OW  734   1.560   1.509   2.570
  260SOL    HW1  735   1.520   1.488   2.660
  260SOL    HW2  736   1.487   1.517   2.502
  261SOL     OW  737   1.133   0.702   2.559
  261SOL    HW1  738   1.184   0.786   2.542
  261SOL    HW2  739   1.082   0.711   2.644
  262SOL     OW  740   1.768   0.600   2.085
  262SOL    HW1  741   1.745   0.595   1.987
  262SOL    HW2  742   1.730   0.521   2.132
  263SOL     OW  743   0.746   1.142   2.901
  263SOL    HW1  744   0.678   1.176   2.965
  263SOL    HW2  745   0.790   1.219   2.855
  264SOL     OW  746   0.859   0.778   3.684
  264SOL    HW1  747   0.839   0.853   3.747
  264SOL    HW2  748   0.893   0.816   3.597
  265SOL     OW  749   0.683   1.001   2.512
  265SOL    HW1  750   0.754   0.989   2.581
  265SOL    HW2  751   0.608   1.055   2.550
  266SOL     OW  752   0.713   1.153   3.692
  266SOL    HW1  753   0.757   1.236   3.725
  266SOL    HW2  754   0.627   1.177   3.647
  267SOL     OW  755   0.326   1.424   2.928
  267SOL    HW1  756   0.251   1.381   2.877
  267SOL    HW2  757   0.382   1.477   2.865
  268SOL     OW  758   1.458   1.501   3.219
  268SOL    HW1  759   1.515   1.583   3.225
  268SOL    HW2  760   1.388   1.503   3.290
  269SOL     OW  761   0.452   0.396   3.347
  269SOL    HW1  762   0.532   0.337   3.350
  269SOL    HW2  763   0.369   0.341   3.356
  270SOL     OW  764   1.612   0.450   2.602
  270SOL    HW1  765   1.534   0.469   2.543
  270SOL    HW2  766   1.625   0.526   2.665
  271SOL     OW  767   0.223   1.711   2.337
  271SOL    HW1  768   0.239   1.794   2.391
  271SOL    HW2  769   0.292   1.704   2.265
  272SOL     OW  770   1.131   1.342   3.562
  272SOL    HW1  771   1.191   1.333   3.642
  272SOL    HW2  772   1.073   1.261   3.555
  273SOL     OW  773   0.237   1.441   2.391
  273SOL    HW1  774   0.218   1.539   2.392
  273SOL    HW2  775   0.173   1.394   2.452
  274SOL     OW  776   0.255   1.086   2.756
  274SOL    HW1  777   0.262   0.993   2.793
  274SOL    HW2  778   0.192   1.140   2.812
  275SOL     OW  779   0.602   1.798   3.284
  275SOL    HW1  780   0.521   1.772   3.337
  275SOL    HW2  781   0.633   1.889   3.313
  276SOL     OW  782   0.582   0.987   2.002
  276SOL    HW1  783   0.629   1.034   1.927
  276SOL    HW2  784   0.623   1.014   2.089
  277SOL     OW  785   1.593   0.108   3.333
  277SOL    HW1  786   1.610   0.184   3.270
  277SOL    HW2  787   1.593   0.142   3.427
  278SOL     OW  788   0.097   0.661   2.413
  278SOL    HW1  789   0.082   0.565   2.437
  278SOL    HW2  790   0.099   0.717   2.496
  279SOL     OW  791   3.850   1.597   1.995
  279SOL    HW1  792   3.847   1.500   2.017
  279SOL    HW2  793   3.804   1.649   2.067
  280SOL     OW  794   1.690   0.920   2.507
  280SOL    HW1  795   1.776   0.872   2.491
  280SOL    HW2  796   1.667   0.975   2.426
  281SOL     OW  797   1.651   1.106   2.293
  281SOL    HW1  798   1.740   1.103   2.248
  281SOL    HW2  799   1.654   1.172   2.368
  282SOL     OW  800   0.131   0.738   3.453
  282SOL    HW1  801   0.230   0.751   3.450
  282SOL    HW2  802   0.087   0.827   3.465
  283SOL     OW  803   0.611   1.388   2.596
  283SOL    HW1  804   0.564   1.301   2.609
  283SOL    HW2  805   0.598   1.419   2.502
  284SOL     OW  806   1.290   1.235   3.287
  284SOL    HW1  807   1.319   1.166   3.221
  284SOL    HW2  808   1.347   1.230   3.369
  285SOL     OW  809   0.821   0.005   2.386
  285SOL    HW1  810   0.864   0.090   2.355
  285SOL    HW2  811   0.722   0.013   2.381
  286SOL     OW  812   0.191   0.958   3.138
  286SOL    HW1  813   0.281   0.916   3.123
  286SOL    HW2  814   0.124   0.914   3.079
  287SOL     OW  815   1.532   0.998   2.066
  287SOL    HW1  816   1.458   0.937   2.096
  287SOL    HW2  817   1.579   1.036   2.146
  288SOL     OW  818   1.184   1.812   3.486
  288SOL    HW1  819   1.193   1.876   3.410
  288SOL    HW2  820   1.199   1.719   3.453
  289SOL     OW  821   0.317   0.252   3.658
  289SOL    HW1  822   0.380   0.328   3.673
  289SOL    HW2  823   0.236   0.265   3.715
  290SOL     OW  824   1.464   1.419   2.812
  290SOL    HW1  825   1.397   1.439   2.883
  290SOL    HW2  826   1.456   1.324   2.783
  291SOL     OW  827   1.656   1.724   2.428
  291SOL    HW1  828   1.621   1.695   2.339
  291SOL    HW2  829   1.634   1.654   2.497
  292SOL     OW  830   0.595   0.720   2.132
  292SOL    HW1  831   0.601   0.805   2.080
  292SOL    HW2  832   0.526   0.730   2.205
  293SOL     OW  833   1.278   0.354   2.794
  293SOL    HW1  834   1.184   0.321   2.799
  293SOL    HW2  835   1.335   0.301   2.857
  294SOL     OW  836   1.580   1.664   2.169
  294SOL    HW1  837   1.671   1.703   2.154
  294SOL    HW2  838   1.538   1.646   2.080
  295SOL     OW  839   0.792   0.612   3.314
  295SOL    HW1  840   0.765   0.590   3.408
  295SOL    HW2  841   0.751   0.546   3.251
  296SOL     OW  842   1.394   0.475   3.549
  296SOL    HW1  843   1.411   0.538   3.624
  296SOL    HW2  844   1.459   0.399   3.552
  297SOL     OW  845   0.955   0.886   3.447
  297SOL    HW1  846   1.013   0.814   3.409
  297SOL    HW2  847   0.902   0.929   3.374
  298SOL     OW  848   0.994   0.410   3.093
  298SOL    HW1  849   0.907   0.431   3.136
  298SOL    HW2  850   0.978   0.361   3.007
  299SOL     OW  851   1.050   0.699   2.287
  299SOL    HW1  852   1.071   0.694   2.385
  299SOL    HW2  853   0.964   0.651   2.269
  300SOL     OW  854   0.093   0.814   2.638
  300SOL    HW1  855   0.177   0.809   2.692
  300SOL    HW2  856   0.040   0.895   2.666
  301SOL     OW  857   0.129   1.861   3.463
  301SOL    HW1  858   0.125   1.823   3.555
  301SOL    HW2  859   0.043   1.841   3.415
  302SOL     OW  860   0.890   0.349   2.064
  302SOL    HW1  861   0.933   0.407   1.995
  302SOL    HW2  862   0.880   0.256   2.028
  303SOL     OW  863   1.710   0.567   3.699
  303SOL    HW1  864   1.675   0.648   3.653
  303SOL    HW2  865   1.746   0.503   3.631
  304SOL     OW  866   1.378   1.142   2.397
  304SOL    HW1  867   1.463   1.127   2.347
  304SOL    HW2  868   1.322   1.209   2.348
  305SOL     OW  869   0.546   0.187   2.758
  305SOL    HW1  870   0.555   0.212   2.854
  305SOL    HW2  871   0.554   0.270   2.702
  306SOL     OW  872   0.996   1.442   2.327
  306SOL    HW1  873   0.963   1.522   2.278
  306SOL    HW2  874   0.983   1.455   2.425
  307SOL     OW  875   0.347   1.807   2.730
  307SOL    HW1  876   0.393   1.718   2.737
  307SOL    HW2  877   0.413   1.880   2.750
  308SOL     OW  878   1.798   1.055   2.735
  308SOL    HW1  879   1.747   1.038   2.651
  308SOL    HW2  880   1.735   1.061   2.812
  309SOL     OW  881   1.226   1.536   3.376
  309SOL    HW1  882   1.207   1.464   3.443
  309SOL    HW2  883   1.157   1.532   3.303
  310SOL     OW  884   0.318   0.953   2.114
  310SOL    HW1  885   0.406   0.980   2.073
  310SOL    HW2  886   0.290   0.865   2.076
  311SOL     OW  887   1.482   0.747   2.586
  311SOL    HW1  888   1.474   0.703   2.675
  311SOL    HW2  889   1.562   0.807   2.585
  312SOL     OW  890   0.466   1.255   3.596
  312SOL    HW1  891   0.436   1.264   3.501
  312SOL    HW2  892   0.387   1.269   3.656
  313SOL     OW  893   1.116   1.771   2.089
  313SOL    HW1  894   1.038   1.733   2.137
  313SOL    HW2  895   1.146   1.707   2.017
  314SOL     OW  896   0.200   0.284   3.351
  314SOL    HW1  897   0.127   0.351   3.337
  314SOL    HW2  898   0.184   0.233   3.436
  315SOL     OW  899   1.631   1.380   1.948
  315SOL    HW1  900   1.585   1.468   1.942
  315SOL    HW2  901   1.565   1.306   1.934
  316SOL     OW  902   0.466   1.736   2.179
  316SOL    HW1  903   0.506   1.798   2.247
  316SOL    HW2  904   0.538   1.700   2.120
  317SOL     OW  905   1.403   0.102   2.293
  317SOL    HW1  906   1.391   0.076   2.197
  317SOL    HW2  907   1.500   0.117   2.312
  318SOL     OW  908   0.255   1.790   3.093
  318SOL    HW1  909   0.305   1.717   3.139
  318SOL    HW2  910   0.239   1.764   2.998
  319SOL     OW  911   0.935   1.701   2.760
  319SOL    HW1  912   1.018   1.653   2.790
  319SOL    HW2  913   0.892   1.650   2.686
  320SOL     OW  914   0.392   0.689   2.337
  320SOL    HW1  915   0.412   0.591   2.350
  320SOL    HW2  916   0.294   0.705   2.352
  321SOL     OW  917   1.538   0.229   3.608
  321SOL    HW1  918   1.549   0.246   3.706
  321SOL    HW2  919   1.465   0.162   3.594
  322SOL     OW  920   0.644   0.119   1.966
  322SOL    HW1  921   0.725   0.062   1.984
  322SOL    HW2  922   0.592   0.078   1.891
  323SOL     OW  923   0.770   0.278   3.620
  323SOL    HW1  924   0.850   0.218   3.624
  323SOL    HW2  925   0.709   0.259   3.697
  324SOL     OW  926   0.875   1.515   3.055
  324SOL    HW1  927   0.856   1.480   2.963
  324SOL    HW2  928   0.948   1.461   3.096
  325SOL     OW  929   1.341   0.588   3.297
  325SOL    HW1  930   1.371   0.555   3.387
  325SOL    HW2  931   1.374   0.681   3.283
  326SOL     OW  932   0.819   1.391   2.801
  326SOL    HW1  933   0.909   1.379   2.759
  326SOL    HW2  934   0.749   1.395   2.730
  327SOL     OW  935   0.927   0.507   2.761
  327SOL    HW1  936   0.901   0.501   2.664
  327SOL    HW2  937   0.959   0.418   2.792
  328SOL     OW  938   0.543   0.042   2.346
  328SOL    HW1  939   0.464   0.040   2.407
  328SOL    HW2  940   0.542   0.125   2.292
  329SOL     OW  941   1.427   1.198   1.910
  329SOL    HW1  942   1.460   1.119   1.961
  329SOL    HW2  943   1.338   1.226   1.945
  330SOL     OW  944   0.283   0.020   2.046
  330SOL    HW1  945   0.334   0.095   2.003
  330SOL    HW2  946   0.348  -0.041   2.092
  331SOL     OW  947   0.946   0.250   2.322
  331SOL    HW1  948   0.913   0.288   2.236
  331SOL    HW2  949   1.045   0.264   2.329
  332SOL     OW  950   1.079   0.682   3.319
  332SOL    HW1  951   1.002   0.618   3.321
  332SOL    HW2  952   1.165   0.631   3.312
  333SOL     OW  953   1.222   1.569   2.656
  333SOL    HW1  954   1.236   1.639   2.587
  333SOL    HW2  955   1.292   1.577   2.726
  334SOL     OW  956   0.465   1.149   2.594
  334SOL    HW1  957   0.395   1.129   2.662
  334SOL    HW2  958   0.427   1.136   2.502
  335SOL     OW  959   1.267   1.793   2.470
  335SOL    HW1  960   1.317   1.854   2.409
  335SOL    HW2  961   1.194   1.844   2.516
  336SOL     OW  962   1.021   0.537   1.889
  336SOL    HW1  963   0.975   0.623   1.866
  336SOL    HW2  964   1.089   0.554   1.961
  337SOL     OW  965   0.083   0.548   3.256
  337SOL    HW1  966   0.175   0.550   3.219
  337SOL    HW2  967   0.074   0.619   3.326
  338SOL     OW  968   0.559   0.230   3.033
  338SOL    HW1  969   0.610   0.158   3.079
  338SOL    HW2  970   0.462   0.223   3.058
  339SOL     OW  971   0.867   0.460   2.499
  339SOL    HW1  972   0.819   0.520   2.435
  339SOL    HW2  973   0.892   0.375   2.452
  340SOL     OW  974   0.988   0.026   2.630
  340SOL    HW1  975   0.936   0.031   2.544
  340SOL    HW2  976   0.974  -0.063   2.672
  341SOL     OW  977   1.444   1.162   2.720
  341SOL    HW1  978   1.368   1.096   2.723
  341SOL    HW2  979   1.475   1.174   2.626
  342SOL     OW  980   1.467   0.607   2.835
  342SOL    HW1  981   1.407   0.527   2.834
  342SOL    HW2  982   1.529   0.601   2.913
  343SOL     OW  983   1.842   0.808   2.243
  343SOL    HW1  984   1.901   0.760   2.308
  343SOL    HW2  985   1.813   0.744   2.171
  344SOL     OW  986   0.487   1.419   2.020
  344SOL    HW1  987   0.406   1.392   2.072
  344SOL    HW2  988   0.478   1.386   1.926
  345SOL     OW  989   1.670   1.265   2.508
  345SOL    HW1  990   1.770   1.262   2.517
  345SOL    HW2  991   1.637   1.357   2.528
  346SOL     OW  992   1.390   0.574   1.933
  346SOL    HW1  993   1.327   0.552   2.008
  346SOL    HW2  994   1.483   0.549   1.960
  347SOL     OW  995   0.529   0.261   2.173
  347SOL    HW1  996   0.578   0.207   2.105
  347SOL    HW2  997   0.502   0.349   2.134
  348SOL     OW  998   1.753   1.241   3.429
  348SOL    HW1  999   1.842   1.197   3.417
  348SOL    HW2 1000   1.766   1.336   3.457
  349SOL     OW 1001   1.055   1.348   3.197
  349SOL    HW1 1002   0.974   1.320   3.249
  349SOL    HW2 1003   1.137   1.310   3.240
  350SOL     OW 1004   1.615   1.630   3.517
  350SOL    HW1 1005   1.598   1.664   3.424
  350SOL    HW2 1006   1.700   1.577   3.518
  351SOL     OW 1007   1.134   1.215   2.968
  351SOL    HW1 1008   1.076   1.250   3.041
  351SOL    HW2 1009   1.100   1.245   2.879
  352SOL     OW 1010   1.624   1.097   2.942
  352SOL    HW1 1011   1.620   1.162   3.018
  352SOL    HW2 1012   1.548   1.113   2.880
  353SOL     OW 1013   0.908   0.107   3.251
  353SOL    HW1 1014   0.933   0.073   3.160
  353SOL    HW2 1015   0.990   0.143   3.296
  354SOL     OW 1016   0.974   1.119   3.588
  354SOL    HW1 1017   0.879   1.129   3.616
  354SOL    HW2 1018   0.984   1.034   3.535
  355SOL     OW 1019   0.712   1.058   2.235
  355SOL    HW1 1020   0.694   1.042   2.332
  355SOL    HW2 1021   0.791   1.005   2.206
  356SOL     OW 1022   0.424   0.814   3.115
  356SOL    HW1 1023   0.496   0.827   3.182
  356SOL    HW2 1024   0.384   0.723   3.126
  357SOL     OW 1025   1.263   0.377   3.140
  357SOL    HW1 1026   1.301   0.456   3.189
  357SOL    HW2 1027   1.168   0.395   3.114
  358SOL     OW 1028   0.061   1.572   3.222
  358SOL    HW1 1029   0.039   1.649   3.161
  358SOL    HW2 1030   0.160   1.562   3.228
  359SOL     OW 1031   0.348   1.113   2.350
  359SOL    HW1 1032   0.348   1.195   2.293
  359SOL    HW2 1033   0.344   1.032   2.291
  360SOL     OW 1034   0.548   0.544   2.725
  360SOL    HW1 1035   0.562   0.603   2.645
  360SOL    HW2 1036   0.617   0.564   2.794
  361SOL     OW 1037   1.246   1.354   2.253
  361SOL    HW1 1038   1.306   1.426   2.286
  361SOL    HW2 1039   1.152   1.372   2.284
  362SOL     OW 1040   1.284   1.461   3.010
  362SOL    HW1 1041   1.344   1.466   3.090
  362SOL    HW2 1042   1.229   1.377   3.015
  363SOL     OW 1043   1.578   0.623   2.342
  363SOL    HW1 1044   1.528   0.671   2.413
  363SOL    HW2 1045   1.628   0.689   2.286
  364SOL     OW 1046   0.346   1.527   3.175
  364SOL    HW1 1047   0.328   1.483   3.087
  364SOL    HW2 1048   0.444   1.542   3.186
  365SOL     OW 1049   0.416   0.743   3.463
  365SOL    HW1 1050   0.479   0.793   3.404
  365SOL    HW2 1051   0.453   0.652   3.481
  366SOL     OW 1052   1.604   0.781   3.553
  366SOL    HW1 1053   1.514   0.824   3.550
  366SOL    HW2 1054   1.662   0.818   3.480
  367SOL     OW 1055   1.001   0.120   3.634
  367SOL    HW1 1056   1.057   0.195   3.600
  367SOL    HW2 1057   1.030   0.034   3.591
  368SOL     OW 1058   0.493   0.042   3.632
  368SOL    HW1 1059   0.468  -0.018   3.555
  368SOL    HW2 1060   0.427   0.117   3.638
  369SOL     OW 1061   0.584   0.872   2.895
  369SOL    HW1 1062   0.620   0.965   2.892
  369SOL    HW2 1063   0.525   0.862   2.975
  370SOL     OW 1064   1.355   0.857   2.889
  370SOL    HW1 1065   1.265   0.852   2.845
  370SOL    HW2 1066   1.402   0.769   2.881
  371SOL     OW 1067   1.200   0.526   2.128
  371SOL    HW1 1068   1.212   0.444   2.183
  371SOL    HW2 1069   1.155   0.597   2.183
  372SOL     OW 1070   0.295   0.187   3.104
  372SOL    HW1 1071   0.261   0.229   3.188
  372SOL    HW2 1072   0.280   0.089   3.108
  373SOL     OW 1073   0.041   1.309   3.138
  373SOL    HW1 1074   0.076   1.250   3.210
  373SOL    HW2 1075   0.040   1.404   3.170
  374SOL     OW 1076   0.725   0.632   2.917
  374SOL    HW1 1077   0.802   0.611   2.856
  374SOL    HW2 1078   0.691   0.724   2.897
  375SOL     OW 1079   1.741   0.962   3.711
  375SOL    HW1 1080   1.690   0.894   3.658
  375SOL    HW2 1081   1.692   0.982   3.795
  376SOL     OW 1082   0.312   0.045   2.498
  376SOL    HW1 1083   0.296   0.140   2.522
  376SOL    HW2 1084   0.297  -0.013   2.579
  377SOL     OW 1085   1.624   0.381   2.223
  377SOL    HW1 1086   1.651   0.308   2.285
  377SOL    HW2 1087   1.596   0.461   2.276
  378SOL     OW 1088   1.024   0.756   2.821
  378SOL    HW1 1089   1.020   0.777   2.918
  378SOL    HW2 1090   0.997   0.660   2.807
  379SOL     OW 1091   0.987   1.574   3.588
  379SOL    HW1 1092   0.967   1.616   3.499
  379SOL    HW2 1093   1.028   1.484   3.573
  380SOL     OW 1094   1.856   1.503   3.465
  380SOL    HW1 1095   1.872   1.530   3.370
  380SOL    HW2 1096   1.940   1.517   3.518
  381SOL     OW 1097   0.338   0.912   3.666
  381SOL    HW1 1098   0.414   0.944   3.722
  381SOL    HW2 1099   0.372   0.850   3.595
  382SOL     OW 1100   1.528   0.266   1.992
  382SOL    HW1 1101   1.456   0.202   2.019
  382SOL    HW2 1102   1.564   0.311   2.074
  383SOL     OW 1103   1.289   0.826   1.890
  383SOL    HW1 1104   1.330   0.735   1.898
  383SOL    HW2 1105   1.319   0.868   1.804
  384SOL     OW 1106   1.069   1.337   2.716
  384SOL    HW1 1107   1.072   1.259   2.653
  384SOL    HW2 1108   1.129   1.409   2.682
  385SOL     OW 1109   0.312   0.807   2.807
  385SOL    HW1 1110   0.409   0.832   2.802
  385SOL    HW2 1111   0.304   0.713   2.840
  386SOL     OW 1112   0.327   0.522   2.875
  386SOL    HW1 1113   0.284   0.433   2.860
  386SOL    HW2 1114   0.408   0.530   2.816
  387SOL     OW 1115   1.138   0.370   3.556
  387SOL    HW1 1116   1.080   0.425   3.616
  387SOL    HW2 1117   1.228   0.411   3.549
  388SOL     OW 1118   1.149   0.210   3.335
  388SOL    HW1 1119   1.143   0.272   3.413
  388SOL    HW2 1120   1.195   0.257   3.260
  389SOL     OW 1121   3.821   1.317   2.055
  389SOL    HW1 1122   3.727   1.328   2.022
  389SOL    HW2 1123   3.834   1.224   2.089
  390SOL     OW 1124   0.066   1.797   2.787
  390SOL    HW1 1125   0.021   1.714   2.755
  390SOL    HW2 1126   0.162   1.797   2.759
  391SOL     OW 1127   0.494   1.575   2.768
  391SOL    HW1 1128   0.563   1.643   2.794
  391SOL    HW2 1129   0.535   1.508   2.706
  392SOL     OW 1130   0.978   0.795   3.087
  392SOL    HW1 1131   1.037   0.771   3.164
  392SOL    HW2 1132   0.888   0.753   3.100
  393SOL     OW 1133   0.011   0.545   2.988
  393SOL    HW1 1134   0.095   0.538   2.934
  393SOL    HW2 1135   0.034   0.546   3.086
  394SOL     OW 1136   0.179   0.513   3.610
  394SOL    HW1 1137   0.241   0.468   3.545
  394SOL    HW2 1138   0.139   0.593   3.567
  395SOL     OW 1139   1.383   0.935   3.523
  395SOL    HW1 1140   1.401   1.033   3.526
  395SOL    HW2 1141   1.375   0.905   3.428
  396SOL     OW 1142   0.818   0.573   2.221
  396SOL    HW1 1143   0.827   0.492   2.164
  396SOL    HW2 1144   0.740   0.627   2.190
  397SOL     OW 1145   1.643   0.603   3.045
  397SOL    HW1 1146   1.626   0.543   3.123
  397SOL    HW2 1147   1.734   0.585   3.008
  398SOL     OW 1148   0.257   1.555   3.596
  398SOL    HW1 1149   0.217   1.625   3.655
  398SOL    HW2 1150   0.250   1.466   3.640
  399SOL     OW 1151   0.703   0.453   3.117
  399SOL    HW1 1152   0.647   0.374   3.091
  399SOL    HW2 1153   0.703   0.520   3.043
  400SOL     OW 1154   0.924   1.681   3.332
  400SOL    HW1 1155   0.896   1.636   3.247
  400SOL    HW2 1156   0.923   1.780   3.318
  401SOL     OW 1157   0.463   0.493   2.047
  401SOL    HW1 1158   0.528   0.565   2.072
  401SOL    HW2 1159   0.373   0.534   2.031
  402SOL     OW 1160   0.146   1.140   3.331
  402SOL    HW1 1161   0.133   1.095   3.419
  402SOL    HW2 1162   0.164   1.072   3.260
  403SOL     OW 1163   1.318   1.045   3.083
  403SOL    HW1 1164   1.347   0.977   3.015
  403SOL    HW2 1165   1.249   1.105   3.043
  404SOL     OW 1166   1.314   0.857   2.163
  404SOL    HW1 1167   1.237   0.829   2.221
  404SOL    HW2 1168   1.288   0.843   2.067
  405SOL     OW 1169   1.776   1.731   3.016
  405SOL    HW1 1170   1.840   1.764   2.946
  405SOL    HW2 1171   1.746   1.639   2.993
  406SOL     OW 1172   1.242   1.733   2.970
  406SOL    HW1 1173   1.327   1.759   2.925
  406SOL    HW2 1174   1.245   1.636   2.994
  407SOL     OW 1175   0.070   1.242   2.877
  407SOL    HW1 1176   0.060   1.267   2.973
  407SOL    HW2 1177  -0.018   1.209   2.842
  408SOL     OW 1178   0.674   1.666   3.575
  408SOL    HW1 1179   0.624   1.751   3.594
  408SOL    HW2 1180   0.747   1.685   3.510
  409SOL     OW 1181   1.717   0.147   2.353
  409SOL    HW1 1182   1.794   0.139   2.290
  409SOL    HW2 1183   1.715   0.067   2.413
  410SOL     OW 1184   1.391   1.570   2.350
  410SOL    HW1 1185   1.453   1.600   2.277
  410SOL    HW2 1186   1.338   1.648   2.383
  411SOL     OW 1187   0.132   1.761   3.735
  411SOL    HW1 1188   0.083   1.708   3.804
  411SOL    HW2 1189   0.184   1.833   3.780
  412SOL     OW 1190   1.282   0.927   2.528
  412SOL    HW1 1191   1.356   0.862   2.543
  412SOL    HW2 1192   1.315   1.004   2.474
  413SOL     OW 1193   0.807   1.278   3.292
  413SOL    HW1 1194   0.779   1.317   3.379
  413SOL    HW2 1195   0.737   1.296   3.223
  414SOL     OW 1196   0.670   1.619   2.016
  414SOL    HW1 1197   0.684   1.637   1.919
  414SOL    HW2 1198   0.612   1.538   2.027
  415SOL     OW 1199   1.619   1.729   3.248
  415SOL    HW1 1200   1.675   1.732   3.165
  415SOL    HW2 1201   1.605   1.823   3.281
  416SOL     OW 1202   1.848   0.142   2.826
  416SOL    HW1 1203   1.867   0.049   2.794
  416SOL    HW2 1204   1.759   0.172   2.792
  417SOL     OW 1205   0.264   0.305   2.580
  417SOL    HW1 1206   0.179   0.349   2.551
  417SOL    HW2 1207   0.264   0.297   2.680
  418SOL     OW 1208   1.211   1.601   1.891
  418SOL    HW1 1209   1.201   1.508   1.928
  418SOL    HW2 1210   1.142   1.617   1.821
  419SOL     OW 1211   0.825   1.009   3.241
  419SOL    HW1 1212   0.875   0.995   3.155
  419SOL    HW2 1213   0.822   1.107   3.262
  420SOL     OW 1214   0.919   0.911   2.148
  420SOL    HW1 1215   0.982   0.946   2.079
  420SOL    HW2 1216   0.965   0.839   2.200
  421SOL     OW 1217   1.490   1.622   1.912
  421SOL    HW1 1218   1.392   1.615   1.896
  421SOL    HW2 1219   1.537   1.651   1.829
  422SOL     OW 1220   0.366   1.303   3.352
  422SOL    HW1 1221   0.358   1.385   3.295
  422SOL    HW2 1222   0.287   1.244   3.337
  423SOL     OW 1223   1.612   1.282   3.147
  423SOL    HW1 1224   1.679   1.268   3.220
  423SOL    HW2 1225   1.548   1.354   3.174
  424SOL     OW 1226   1.058   1.106   2.574
  424SOL    HW1 1227   0.982   1.056   2.615
  424SOL    HW2 1228   1.126   1.041   2.540
  425SOL     OW 1229   1.020   0.237   2.828
  425SOL    HW1 1230   1.008   0.189   2.741
  425SOL    HW2 1231   1.017   0.170   2.903
  426SOL     OW 1232   0.604   1.486   2.343
  426SOL    HW1 1233   0.653   1.433   2.273
  426SOL    HW2 1234   0.529   1.536   2.300
  427SOL     OW 1235   1.727   0.394   3.240
  427SOL    HW1 1236   1.801   0.462   3.242
  427SOL    HW2 1237   1.752   0.319   3.179
  428SOL     OW 1238   0.244   1.348   2.142
  428SOL    HW1 1239   0.147   1.339   2.121
  428SOL    HW2 1240   0.255   1.386   2.234
  429SOL     OW 1241   0.103   1.019   3.579
  429SOL    HW1 1242   0.025   0.993   3.636
  429SOL    HW2 1243   0.187   0.981   3.618
  430SOL     OW 1244   0.672   0.208   3.362
  430SOL    HW1 1245   0.753   0.174   3.314
  430SOL    HW2 1246   0.697   0.234   3.455
  431SOL     OW 1247   0.070   0.332   1.885
  431SOL    HW1 1248  -0.027   0.318   1.867
  431SOL    HW2 1249   0.103   0.410   1.832
  432SOL     OW 1250   1.424   0.856   3.259
  432SOL    HW1 1251   1.369   0.920   3.205
  432SOL    HW2 1252   1.519   0.857   3.226
  433SOL     OW 1253   0.059   0.165   2.174
  433SOL    HW1 1254   0.057   0.241   2.109
  433SOL    HW2 1255   0.138   0.106   2.153
  434SOL     OW 1256   1.179   1.340   1.982
  434SOL    HW1 1257   1.084   1.311   1.976
  434SOL    HW2 1258   1.208   1.340   2.078
  435SOL     OW 1259   0.623   0.830   3.296
  435SOL    HW1 1260   0.680   0.911   3.281
  435SOL    HW2 1261   0.682   0.750   3.306
  436SOL     OW 1262   1.484   1.779   2.848
  436SOL    HW1 1263   1.506   1.848   2.779
  436SOL    HW2 1264   1.569   1.746   2.889
  437SOL     OW 1265   0.722   0.562   3.568
  437SOL    HW1 1266   0.766   0.631   3.626
  437SOL    HW2 1267   0.749   0.471   3.600
  438SOL     OW 1268   1.472   1.199   3.513
  438SOL    HW1 1269   1.465   1.227   3.609
  438SOL    HW2 1270   1.566   1.213   3.481
  439SOL     OW 1271   0.379   1.742   3.430
  439SOL    HW1 1272   0.293   1.792   3.418
  439SOL    HW2 1273   0.361   1.656   3.476
  440SOL     OW 1274   1.668   0.878   3.118
  440SOL    HW1 1275   1.662   0.788   3.077
  440SOL    HW2 1276   1.655   0.948   3.048
  441SOL     OW 1277   1.222   0.316   2.321
  441SOL    HW1 1278   1.283   0.237   2.314
  441SOL    HW2 1279   1.248   0.371   2.400
  442SOL     OW 1280   0.586   0.737   2.530
  442SOL    HW1 1281   0.628   0.827   2.519
  442SOL    HW2 1282   0.516   0.724   2.460
  443SOL     OW 1283   1.759   0.367   3.510
  443SOL    HW1 1284   1.741   0.379   3.413
  443SOL    HW2 1285   1.689   0.307   3.549
  444SOL     OW 1286   1.749   0.928   3.374
  444SOL    HW1 1287   1.741   1.026   3.396
  444SOL    HW2 1288   1.730   0.914   3.277
  445SOL     OW 1289   0.868   1.365   1.904
  445SOL    HW1 1290   0.825   1.385   1.992
  445SOL    HW2 1291   0.878   1.450   1.853
  446SOL     OW 1292   0.662   1.788   2.805
  446SOL    HW1 1293   0.637   1.882   2.782
  446SOL    HW2 1294   0.761   1.775   2.794
  447SOL     OW 1295   0.868   0.969   2.718
  447SOL    HW1 1296   0.920   0.892   2.755
  447SOL    HW2 1297   0.827   1.021   2.793
  448SOL     OW 1298   1.079   0.991   1.946
  448SOL    HW1 1299   1.051   1.043   1.866
  448SOL    HW2 1300   1.156   0.932   1.922
  449SOL     OW 1301   1.845   1.553   2.710
  449SOL    HW1 1302   1.775   1.535   2.641
  449SOL    HW2 1303   1.844   1.480   2.779
  450SOL     OW 1304   0.222   1.305   3.729
  450SOL    HW1 1305   0.169   1.235   3.680
  450SOL    HW2 1306   0.187   1.314   3.822
  451SOL     OW 1307   0.094   1.236   2.519
  451SOL    HW1 1308   0.096   1.199   2.612
  451SOL    HW2 1309   0.155   1.184   2.461
  452SOL     OW 1310   0.686   1.399   3.505
  452SOL    HW1 1311   0.601   1.354   3.531
  452SOL    HW2 1312   0.682   1.495   3.532
  453SOL     OW 1313   1.801   0.181   3.095
  453SOL    HW1 1314   1.824   0.092   3.134
  453SOL    HW2 1315   1.819   0.180   2.997
  454SOL     OW 1316   0.428   0.427   2.385
  454SOL    HW1 1317   0.467   0.358   2.325
  454SOL    HW2 1318   0.381   0.381   2.461
  455SOL     OW 1319   1.692   1.483   2.960
  455SOL    HW1 1320   1.612   1.464   2.904
  455SOL    HW2 1321   1.703   1.411   3.028
  456SOL     OW 1322   0.333   0.555   3.152
  456SOL    HW1 1323   0.392   0.500   3.211
  456SOL    HW2 1324   0.347   0.529   3.056
  457SOL     OW 1325   0.828   1.579   2.541
  457SOL    HW1 1326   0.816   1.639   2.461
  457SOL    HW2 1327   0.750   1.517   2.547
  458SOL     OW 1328   1.428   0.225   2.980
  458SOL    HW1 1329   1.467   0.146   3.026
  458SOL    HW2 1330   1.373   0.278   3.044
  459SOL     OW 1331   1.009   3.852   3.005
  459SOL    HW1 1332   0.947   3.784   2.965
  459SOL    HW2 1333   1.100   3.812   3.012
  460SOL     OW 1334   0.775   1.331   2.179
  460SOL    HW1 1335   0.744   1.236   2.188
  460SOL    HW2 1336   0.858   1.344   2.232
  461SOL     OW 1337   0.623   1.558   3.151
  461SOL    HW1 1338   0.620   1.645   3.199
  461SOL    HW2 1339   0.713   1.545   3.110
  462SOL     OW 1340   1.349   0.042   2.028
  462SOL    HW1 1341   1.391  -0.022   1.964
  462SOL    HW2 1342   1.255   0.013   2.047
  463SOL     OW 1343   1.293   0.464   2.543
  463SOL    HW1 1344   1.239   0.548   2.545
  463SOL    HW2 1345   1.290   0.420   2.633
  464SOL     OW 1346   1.602   0.216   2.748
  464SOL    HW1 1347   1.530   0.222   2.818
  464SOL    HW2 1348   1.597   0.295   2.688
  465SOL     OW 1349   0.043   1.064   2.150
  465SOL    HW1 1350   0.139   1.039   2.145
  465SOL    HW2 1351  -0.010   0.985   2.181
  466SOL     OW 1352   0.882   1.659   2.203
  466SOL    HW1 1353   0.808   1.637   2.140
  466SOL    HW2 1354   0.856   1.737   2.260
  467SOL     OW 1355   0.235   2.494   0.117
  467SOL    HW1 1356   0.144   2.481   0.156
  467SOL    HW2 1357   0.231   2.483   0.018
  468SOL     OW 1358   0.208   2.136   0.993
  468SOL    HW1 1359   0.246   2.106   1.081
  468SOL    HW2 1360   0.116   2.100   0.982
  469SOL     OW 1361   3.852   2.254   0.634
  469SOL    HW1 1362   3.769   2.270   0.688
  469SOL    HW2 1363   3.837   2.180   0.569
  470SOL     OW 1364   0.568   3.156   1.181
  470SOL    HW1 1365   0.477   3.153   1.140
  470SOL    HW2 1366   0.585   3.248   1.218
  471SOL     OW 1367   1.558   3.370   0.707
  471SOL    HW1 1368   1.518   3.348   0.796
  471SOL    HW2 1369   1.486   3.376   0.638
  472SOL     OW 1370   1.135   2.561   0.701
  472SOL    HW1 1371   1.186   2.645   0.680
  472SOL    HW2 1372   1.083   2.574   0.785
  473SOL     OW 1373   1.770   2.462   0.210
  473SOL    HW1 1374   1.736   2.462   0.116
  473SOL    HW2 1375   1.729   2.387   0.261
  474SOL     OW 1376   0.747   3.005   1.039
  474SOL    HW1 1377   0.678   3.039   1.102
  474SOL    HW2 1378   0.791   3.082   0.993
  475SOL     OW 1379   0.871   2.630   1.820
  475SOL    HW1 1380   0.858   2.699   1.891
  475SOL    HW2 1381   0.896   2.675   1.734
  476SOL     OW 1382   0.682   2.862   0.650
  476SOL    HW1 1383   0.753   2.851   0.720
  476SOL    HW2 1384   0.608   2.917   0.687
  477SOL     OW 1385   0.711   3.015   1.817
  477SOL    HW1 1386   0.763   3.094   1.848
  477SOL    HW2 1387   0.625   3.046   1.776
  478SOL     OW 1388   0.328   3.284   1.065
  478SOL    HW1 1389   0.250   3.243   1.017
  478SOL    HW2 1390   0.381   3.340   1.002
  479SOL     OW 1391   1.460   3.364   1.355
  479SOL    HW1 1392   1.513   3.449   1.362
  479SOL    HW2 1393   1.393   3.361   1.429
  480SOL     OW 1394   0.450   2.259   1.483
  480SOL    HW1 1395   0.531   2.199   1.489
  480SOL    HW2 1396   0.367   2.204   1.497
  481SOL     OW 1397   1.616   2.317   0.739
  481SOL    HW1 1398   1.542   2.337   0.675
  481SOL    HW2 1399   1.640   2.400   0.790
  482SOL     OW 1400   0.231   3.583   0.485
  482SOL    HW1 1401   0.243   3.666   0.541
  482SOL    HW2 1402   0.303   3.580   0.415
  483SOL     OW 1403   1.138   3.200   1.698
  483SOL    HW1 1404   1.183   3.200   1.787
  483SOL    HW2 1405   1.082   3.118   1.688
  484SOL     OW 1406   0.231   3.308   0.531
  484SOL    HW1 1407   0.214   3.406   0.534
  484SOL    HW2 1408   0.168   3.261   0.592
  485SOL     OW 1409   0.255   2.948   0.893
  485SOL    HW1 1410   0.261   2.855   0.931
  485SOL    HW2 1411   0.192   3.002   0.949
  486SOL     OW 1412   0.614   3.653   1.433
  486SOL    HW1 1413   0.528   3.638   1.482
  486SOL    HW2 1414   0.647   3.745   1.452
  487SOL     OW 1415   0.585   2.847   0.144
  487SOL    HW1 1416   0.626   2.891   0.065
  487SOL    HW2 1417   0.629   2.880   0.228
  488SOL     OW 1418   0.097   2.522   0.551
  488SOL    HW1 1419   0.080   2.427   0.575
  488SOL    HW2 1420   0.099   2.578   0.634
  489SOL     OW 1421   1.849   3.628   0.326
  489SOL    HW1 1422   1.911   3.596   0.398
  489SOL    HW2 1423   1.865   3.726   0.310
  490SOL     OW 1424   0.023   3.474   0.109
  490SOL    HW1 1425   0.025   3.376   0.131
  490SOL    HW2 1426  -0.027   3.523   0.181
  491SOL     OW 1427   1.690   2.782   0.644
  491SOL    HW1 1428   1.776   2.734   0.629
  491SOL    HW2 1429   1.667   2.836   0.564
  492SOL     OW 1430   1.651   2.967   0.432
  492SOL    HW1 1431   1.738   2.968   0.383
  492SOL    HW2 1432   1.654   3.033   0.506
  493SOL     OW 1433   0.132   2.608   1.584
  493SOL    HW1 1434   0.231   2.620   1.581
  493SOL    HW2 1435   0.088   2.696   1.603
  494SOL     OW 1436   0.612   3.252   0.735
  494SOL    HW1 1437   0.565   3.165   0.748
  494SOL    HW2 1438   0.601   3.282   0.641
  495SOL     OW 1439   1.291   3.100   1.422
  495SOL    HW1 1440   1.318   3.029   1.357
  495SOL    HW2 1441   1.349   3.094   1.503
  496SOL     OW 1442   0.817   1.870   0.510
  496SOL    HW1 1443   0.861   1.956   0.486
  496SOL    HW2 1444   0.718   1.884   0.517
  497SOL     OW 1445   0.192   2.821   1.275
  497SOL    HW1 1446   0.281   2.778   1.261
  497SOL    HW2 1447   0.123   2.776   1.218
  498SOL     OW 1448   1.519   2.867   0.203
  498SOL    HW1 1449   1.448   2.804   0.237
  498SOL    HW2 1450   1.573   2.900   0.280
  499SOL     OW 1451   1.172   3.673   1.594
  499SOL    HW1 1452   1.230   3.725   1.532
  499SOL    HW2 1453   1.192   3.576   1.584
  500SOL     OW 1454   0.335   2.112   1.824
  500SOL    HW1 1455   0.386   2.197   1.840
  500SOL    HW2 1456   0.239   2.125   1.847
  501SOL     OW 1457   1.465   3.281   0.950
  501SOL    HW1 1458   1.397   3.300   1.021
  501SOL    HW2 1459   1.456   3.185   0.921
  502SOL     OW 1460   1.656   3.596   0.583
  502SOL    HW1 1461   1.637   3.580   0.486
  502SOL    HW2 1462   1.628   3.516   0.636
  503SOL     OW 1463   0.596   2.585   0.272
  503SOL    HW1 1464   0.602   2.670   0.220
  503SOL    HW2 1465   0.527   2.595   0.344
  504SOL     OW 1466   1.290   2.189   0.941
  504SOL    HW1 1467   1.193   2.166   0.930
  504SOL    HW2 1468   1.318   2.169   1.035
  505SOL     OW 1469   1.586   3.533   0.309
  505SOL    HW1 1470   1.681   3.564   0.305
  505SOL    HW2 1471   1.554   3.514   0.216
  506SOL     OW 1472   0.785   2.478   1.450
  506SOL    HW1 1473   0.763   2.453   1.544
  506SOL    HW2 1474   0.748   2.409   1.388
  507SOL     OW 1475   1.387   2.343   1.680
  507SOL    HW1 1476   1.389   2.395   1.766
  507SOL    HW2 1477   1.439   2.258   1.691
  508SOL     OW 1478   0.955   2.746   1.582
  508SOL    HW1 1479   1.012   2.673   1.545
  508SOL    HW2 1480   0.901   2.787   1.508
  509SOL     OW 1481   0.983   2.248   1.259
  509SOL    HW1 1482   0.891   2.279   1.282
  509SOL    HW2 1483   0.988   2.227   1.161
  510SOL     OW 1484   1.051   2.560   0.427
  510SOL    HW1 1485   1.071   2.554   0.524
  510SOL    HW2 1486   0.964   2.514   0.408
  511SOL     OW 1487   0.093   2.676   0.776
  511SOL    HW1 1488   0.177   2.671   0.829
  511SOL    HW2 1489   0.040   2.756   0.804
  512SOL     OW 1490   0.135   3.712   1.586
  512SOL    HW1 1491   0.135   3.689   1.683
  512SOL    HW2 1492   0.041   3.708   1.550
  513SOL     OW 1493   0.888   2.216   0.202
  513SOL    HW1 1494   0.931   2.277   0.135
  513SOL    HW2 1495   0.887   2.123   0.165
  514SOL     OW 1496   1.379   3.004   0.536
  514SOL    HW1 1497   1.463   2.988   0.484
  514SOL    HW2 1498   1.322   3.071   0.487
  515SOL     OW 1499   0.546   2.038   0.899
  515SOL    HW1 1500   0.551   2.067   0.994
  515SOL    HW2 1501   0.550   2.118   0.839
  516SOL     OW 1502   0.997   3.307   0.465
  516SOL    HW1 1503   0.961   3.389   0.420
  516SOL    HW2 1504   0.985   3.316   0.564
  517SOL     OW 1505   0.343   3.674   0.845
  517SOL    HW1 1506   0.379   3.581   0.854
  517SOL    HW2 1507   0.416   3.740   0.863
  518SOL     OW 1508   1.798   2.919   0.871
  518SOL    HW1 1509   1.745   2.899   0.788
  518SOL    HW2 1510   1.736   2.925   0.949
  519SOL     OW 1511   1.226   3.397   1.515
  519SOL    HW1 1512   1.213   3.323   1.582
  519SOL    HW2 1513   1.163   3.383   1.438
  520SOL     OW 1514   0.320   2.811   0.242
  520SOL    HW1 1515   0.408   2.835   0.202
  520SOL    HW2 1516   0.295   2.718   0.216
  521SOL     OW 1517   1.485   2.611   0.719
  521SOL    HW1 1518   1.477   2.572   0.811
  521SOL    HW2 1519   1.563   2.673   0.716
  522SOL     OW 1520   0.466   3.123   1.731
  522SOL    HW1 1521   0.440   3.130   1.635
  522SOL    HW2 1522   0.384   3.125   1.788
  523SOL     OW 1523   1.110   3.658   0.213
  523SOL    HW1 1524   1.046   3.611   0.274
  523SOL    HW2 1525   1.150   3.592   0.150
  524SOL     OW 1526   0.202   2.145   1.496
  524SOL    HW1 1527   0.122   2.203   1.483
  524SOL    HW2 1528   0.176   2.064   1.549
  525SOL     OW 1529   1.628   3.239   0.087
  525SOL    HW1 1530   1.585   3.329   0.077
  525SOL    HW2 1531   1.561   3.169   0.063
  526SOL     OW 1532   0.469   3.620   0.334
  526SOL    HW1 1533   0.513   3.691   0.389
  526SOL    HW2 1534   0.537   3.579   0.272
  527SOL     OW 1535   1.404   1.967   0.435
  527SOL    HW1 1536   1.392   1.945   0.338
  527SOL    HW2 1537   1.501   1.976   0.455
  528SOL     OW 1538   0.246   3.656   1.234
  528SOL    HW1 1539   0.300   3.582   1.275
  528SOL    HW2 1540   0.228   3.636   1.138
  529SOL     OW 1541   0.932   3.594   0.880
  529SOL    HW1 1542   1.007   3.547   0.926
  529SOL    HW2 1543   0.896   3.537   0.806
  530SOL     OW 1544   0.391   2.553   0.475
  530SOL    HW1 1545   0.412   2.456   0.488
  530SOL    HW2 1546   0.293   2.567   0.491
  531SOL     OW 1547   1.497   2.108   1.752
  531SOL    HW1 1548   1.521   2.116   1.849
  531SOL    HW2 1549   1.432   2.033   1.740
  532SOL     OW 1550   0.623   1.970   0.107
  532SOL    HW1 1551   0.722   1.957   0.113
  532SOL    HW2 1552   0.591   1.936   0.018
  533SOL     OW 1553   0.764   2.138   1.756
  533SOL    HW1 1554   0.847   2.082   1.752
  533SOL    HW2 1555   0.712   2.114   1.838
  534SOL     OW 1556   0.874   3.376   1.193
  534SOL    HW1 1557   0.856   3.340   1.101
  534SOL    HW2 1558   0.948   3.323   1.235
  535SOL     OW 1559   1.341   2.463   1.439
  535SOL    HW1 1560   1.369   2.424   1.526
  535SOL    HW2 1561   1.379   2.556   1.430
  536SOL     OW 1562   0.819   3.255   0.940
  536SOL    HW1 1563   0.909   3.243   0.897
  536SOL    HW2 1564   0.748   3.257   0.869
  537SOL     OW 1565   0.929   2.368   0.899
  537SOL    HW1 1566   0.902   2.363   0.803
  537SOL    HW2 1567   0.958   2.278   0.931
  538SOL     OW 1568   0.547   1.925   0.498
  538SOL    HW1 1569   0.464   1.923   0.554
  538SOL    HW2 1570   0.545   2.005   0.438
  539SOL     OW 1571   1.427   3.059   0.029
  539SOL    HW1 1572   1.457   2.983   0.086
  539SOL    HW2 1573   1.341   3.095   0.064
  540SOL     OW 1574   0.291   1.909   0.186
  540SOL    HW1 1575   0.350   1.985   0.159
  540SOL    HW2 1576   0.346   1.836   0.226
  541SOL     OW 1577   0.946   2.111   0.457
  541SOL    HW1 1578   0.911   2.152   0.373
  541SOL    HW2 1579   1.044   2.127   0.464
  542SOL     OW 1580   1.081   2.542   1.455
  542SOL    HW1 1581   1.010   2.472   1.457
  542SOL    HW2 1582   1.170   2.499   1.446
  543SOL     OW 1583   1.225   3.425   0.791
  543SOL    HW1 1584   1.242   3.495   0.722
  543SOL    HW2 1585   1.290   3.436   0.866
  544SOL     OW 1586   0.465   3.012   0.730
  544SOL    HW1 1587   0.394   2.992   0.798
  544SOL    HW2 1588   0.427   3.001   0.639
  545SOL     OW 1589   1.276   3.663   0.597
  545SOL    HW1 1590   1.324   3.729   0.539
  545SOL    HW2 1591   1.207   3.711   0.651
  546SOL     OW 1592   1.016   2.396   0.028
  546SOL    HW1 1593   0.987   2.483  -0.010
  546SOL    HW2 1594   1.091   2.411   0.092
  547SOL     OW 1595   0.080   2.413   1.393
  547SOL    HW1 1596   0.174   2.412   1.356
  547SOL    HW2 1597   0.072   2.487   1.460
  548SOL     OW 1598   0.558   2.086   1.170
  548SOL    HW1 1599   0.607   2.009   1.211
  548SOL    HW2 1600   0.462   2.085   1.199
  549SOL     OW 1601   0.867   2.321   0.637
  549SOL    HW1 1602   0.819   2.383   0.575
  549SOL    HW2 1603   0.893   2.238   0.587
  550SOL     OW 1604   1.017   1.913   0.746
  550SOL    HW1 1605   0.956   1.915   0.667
  550SOL    HW2 1606   0.993   1.836   0.805
  551SOL     OW 1607   1.444   3.023   0.858
  551SOL    HW1 1608   1.368   2.958   0.863
  551SOL    HW2 1609   1.471   3.035   0.763
  552SOL     OW 1610   1.468   2.479   0.965
  552SOL    HW1 1611   1.428   2.389   0.948
  552SOL    HW2 1612   1.532   2.472   1.042
  553SOL     OW 1613   1.844   2.672   0.376
  553SOL    HW1 1614   1.900   2.623   0.442
  553SOL    HW2 1615   1.816   2.609   0.303
  554SOL     OW 1616   0.486   3.279   0.156
  554SOL    HW1 1617   0.410   3.250   0.214
  554SOL    HW2 1618   0.471   3.247   0.063
  555SOL     OW 1619   1.674   3.127   0.645
  555SOL    HW1 1620   1.773   3.126   0.656
  555SOL    HW2 1621   1.638   3.219   0.666
  556SOL     OW 1622   1.390   2.437   0.076
  556SOL    HW1 1623   1.325   2.419   0.150
  556SOL    HW2 1624   1.462   2.369   0.077
  557SOL     OW 1625   0.527   2.124   0.314
  557SOL    HW1 1626   0.568   2.066   0.243
  557SOL    HW2 1627   0.504   2.213   0.275
  558SOL     OW 1628   1.754   3.102   1.566
  558SOL    HW1 1629   1.843   3.059   1.553
  558SOL    HW2 1630   1.766   3.196   1.598
  559SOL     OW 1631   1.056   3.213   1.337
  559SOL    HW1 1632   0.975   3.183   1.387
  559SOL    HW2 1633   1.137   3.172   1.378
  560SOL     OW 1634   1.613   3.491   1.652
  560SOL    HW1 1635   1.602   3.530   1.561
  560SOL    HW2 1636   1.699   3.440   1.656
  561SOL     OW 1637   1.133   3.078   1.106
  561SOL    HW1 1638   1.074   3.113   1.178
  561SOL    HW2 1639   1.100   3.108   1.017
  562SOL     OW 1640   1.626   2.959   1.080
  562SOL    HW1 1641   1.622   3.025   1.155
  562SOL    HW2 1642   1.549   2.975   1.018
  563SOL     OW 1643   0.912   1.949   1.392
  563SOL    HW1 1644   0.934   1.933   1.296
  563SOL    HW2 1645   0.987   1.998   1.436
  564SOL     OW 1646   0.980   2.975   1.721
  564SOL    HW1 1647   0.885   2.995   1.747
  564SOL    HW2 1648   0.983   2.893   1.664
  565SOL     OW 1649   0.715   2.924   0.374
  565SOL    HW1 1650   0.695   2.906   0.471
  565SOL    HW2 1651   0.795   2.870   0.347
  566SOL     OW 1652   0.423   2.675   1.252
  566SOL    HW1 1653   0.495   2.689   1.320
  566SOL    HW2 1654   0.383   2.584   1.264
  567SOL     OW 1655   0.060   3.433   1.360
  567SOL    HW1 1656   0.040   3.513   1.303
  567SOL    HW2 1657   0.159   3.423   1.369
  568SOL     OW 1658   0.349   2.977   0.483
  568SOL    HW1 1659   0.342   3.058   0.424
  568SOL    HW2 1660   0.348   2.895   0.427
  569SOL     OW 1661   0.548   2.404   0.862
  569SOL    HW1 1662   0.562   2.463   0.783
  569SOL    HW2 1663   0.615   2.426   0.932
  570SOL     OW 1664   1.246   3.214   0.395
  570SOL    HW1 1665   1.307   3.287   0.425
  570SOL    HW2 1666   1.152   3.235   0.424
  571SOL     OW 1667   1.285   3.323   1.147
  571SOL    HW1 1668   1.344   3.328   1.227
  571SOL    HW2 1669   1.229   3.240   1.152
  572SOL     OW 1670   1.580   2.485   0.481
  572SOL    HW1 1671   1.528   2.533   0.551
  572SOL    HW2 1672   1.625   2.551   0.421
  573SOL     OW 1673   0.346   3.388   1.313
  573SOL    HW1 1674   0.328   3.345   1.225
  573SOL    HW2 1675   0.444   3.404   1.323
  574SOL     OW 1676   0.415   2.605   1.600
  574SOL    HW1 1677   0.479   2.654   1.541
  574SOL    HW2 1678   0.453   2.515   1.622
  575SOL     OW 1679   1.602   2.647   1.685
  575SOL    HW1 1680   1.512   2.690   1.679
  575SOL    HW2 1681   1.661   2.683   1.613
  576SOL     OW 1682   0.997   1.993   1.753
  576SOL    HW1 1683   1.055   2.073   1.736
  576SOL    HW2 1684   1.048   1.910   1.731
  577SOL     OW 1685   0.492   1.900   1.750
  577SOL    HW1 1686   0.450   1.842   1.680
  577SOL    HW2 1687   0.434   1.979   1.767
  578SOL     OW 1688   0.585   2.733   1.034
  578SOL    HW1 1689   0.619   2.827   1.030
  578SOL    HW2 1690   0.525   2.723   1.113
  579SOL     OW 1691   1.353   2.725   1.024
  579SOL    HW1 1692   1.262   2.718   0.985
  579SOL    HW2 1693   1.400   2.637   1.016
  580SOL     OW 1694   1.199   2.388   0.268
  580SOL    HW1 1695   1.211   2.305   0.323
  580SOL    HW2 1696   1.154   2.458   0.322
  581SOL     OW 1697   0.296   2.058   1.244
  581SOL    HW1 1698   0.263   2.097   1.330
  581SOL    HW2 1699   0.281   1.959   1.244
  582SOL     OW 1700   0.041   3.171   1.276
  582SOL    HW1 1701   0.076   3.112   1.349
  582SOL    HW2 1702   0.040   3.266   1.307
  583SOL     OW 1703   0.723   2.493   1.055
  583SOL    HW1 1704   0.801   2.474   0.994
  583SOL    HW2 1705   0.689   2.585   1.037
  584SOL     OW 1706   1.738   2.808   1.859
  584SOL    HW1 1707   1.693   2.743   1.798
  584SOL    HW2 1708   1.674   2.836   1.931
  585SOL     OW 1709   0.305   1.925   0.627
  585SOL    HW1 1710   0.285   2.021   0.649
  585SOL    HW2 1711   0.312   1.873   0.712
  586SOL     OW 1712   1.626   2.242   0.359
  586SOL    HW1 1713   1.651   2.168   0.422
  586SOL    HW2 1714   1.598   2.322   0.411
  587SOL     OW 1715   1.024   2.617   0.960
  587SOL    HW1 1716   1.020   2.639   1.057
  587SOL    HW2 1717   0.996   2.522   0.946
  588SOL     OW 1718   0.986   3.424   1.720
  588SOL    HW1 1719   0.962   3.468   1.634
  588SOL    HW2 1720   1.032   3.337   1.702
  589SOL     OW 1721   1.857   3.367   1.603
  589SOL    HW1 1722   1.874   3.393   1.508
  589SOL    HW2 1723   1.940   3.381   1.657
  590SOL     OW 1724   0.350   2.780   1.803
  590SOL    HW1 1725   0.430   2.805   1.858
  590SOL    HW2 1726   0.377   2.714   1.733
  591SOL     OW 1727   1.527   2.143   0.117
  591SOL    HW1 1728   1.460   2.072   0.136
  591SOL    HW2 1729   1.566   2.177   0.203
  592SOL     OW 1730   1.292   2.687   0.021
  592SOL    HW1 1731   1.334   2.597   0.036
  592SOL    HW2 1732   1.330   2.728  -0.062
  593SOL     OW 1733   1.069   3.198   0.854
  593SOL    HW1 1734   1.072   3.120   0.791
  593SOL    HW2 1735   1.129   3.270   0.821
  594SOL     OW 1736   0.312   2.669   0.945
  594SOL    HW1 1737   0.409   2.694   0.940
  594SOL    HW2 1738   0.304   2.575   0.979
  595SOL     OW 1739   0.327   2.382   1.013
  595SOL    HW1 1740   0.284   2.293   0.999
  595SOL    HW2 1741   0.407   2.391   0.954
  596SOL     OW 1742   1.134   2.234   1.694
  596SOL    HW1 1743   1.080   2.291   1.755
  596SOL    HW2 1744   1.224   2.275   1.680
  597SOL     OW 1745   1.137   2.072   1.473
  597SOL    HW1 1746   1.135   2.131   1.553
  597SOL    HW2 1747   1.139   2.128   1.390
  598SOL     OW 1748   3.838   3.182   0.178
  598SOL    HW1 1749   3.742   3.198   0.155
  598SOL    HW2 1750   3.847   3.091   0.219
  599SOL     OW 1751   0.078   3.648   0.942
  599SOL    HW1 1752   0.025   3.573   0.901
  599SOL    HW2 1753   0.166   3.655   0.897
  600SOL     OW 1754   0.491   3.440   0.903
  600SOL    HW1 1755   0.559   3.509   0.929
  600SOL    HW2 1756   0.533   3.372   0.843
  601SOL     OW 1757   0.978   2.655   1.225
  601SOL    HW1 1758   1.039   2.630   1.301
  601SOL    HW2 1759   0.887   2.617   1.242
  602SOL     OW 1760   0.010   2.408   1.126
  602SOL    HW1 1761   0.094   2.399   1.072
  602SOL    HW2 1762   0.033   2.410   1.223
  603SOL     OW 1763   0.187   2.382   1.725
  603SOL    HW1 1764   0.246   2.333   1.662
  603SOL    HW2 1765   0.149   2.463   1.679
  604SOL     OW 1766   1.376   2.802   1.656
  604SOL    HW1 1767   1.400   2.899   1.657
  604SOL    HW2 1768   1.375   2.769   1.561
  605SOL     OW 1769   0.817   2.436   0.362
  605SOL    HW1 1770   0.828   2.357   0.302
  605SOL    HW2 1771   0.740   2.491   0.331
  606SOL     OW 1772   1.637   2.468   1.175
  606SOL    HW1 1773   1.619   2.431   1.267
  606SOL    HW2 1774   1.731   2.446   1.149
  607SOL     OW 1775   0.274   3.419   1.737
  607SOL    HW1 1776   0.230   3.490   1.792
  607SOL    HW2 1777   0.255   3.329   1.777
  608SOL     OW 1778   0.704   2.311   1.254
  608SOL    HW1 1779   0.647   2.233   1.229
  608SOL    HW2 1780   0.701   2.379   1.181
  609SOL     OW 1781   0.921   3.535   1.478
  609SOL    HW1 1782   0.892   3.507   1.386
  609SOL    HW2 1783   0.964   3.626   1.473
  610SOL     OW 1784   0.465   2.358   0.194
  610SOL    HW1 1785   0.528   2.432   0.217
  610SOL    HW2 1786   0.375   2.396   0.172
  611SOL     OW 1787   0.146   3.002   1.469
  611SOL    HW1 1788   0.134   2.956   1.557
  611SOL    HW2 1789   0.164   2.934   1.398
  612SOL     OW 1790   1.317   2.909   1.220
  612SOL    HW1 1791   1.346   2.841   1.152
  612SOL    HW2 1792   1.248   2.969   1.181
  613SOL     OW 1793   1.310   2.716   0.300
  613SOL    HW1 1794   1.232   2.688   0.357
  613SOL    HW2 1795   1.287   2.702   0.204
  614SOL     OW 1796   1.761   3.600   1.147
  614SOL    HW1 1797   1.829   3.637   1.083
  614SOL    HW2 1798   1.743   3.504   1.124
  615SOL     OW 1799   1.243   3.598   1.107
  615SOL    HW1 1800   1.330   3.623   1.065
  615SOL    HW2 1801   1.243   3.501   1.130
  616SOL     OW 1802   0.070   3.104   1.014
  616SOL    HW1 1803   0.061   3.129   1.111
  616SOL    HW2 1804  -0.017   3.071   0.980
  617SOL     OW 1805   0.682   3.525   1.728
  617SOL    HW1 1806   0.607   3.589   1.713
  617SOL    HW2 1807   0.752   3.538   1.658
  618SOL     OW 1808   0.905   1.953   0.105
  618SOL    HW1 1809   0.941   1.952   0.012
  618SOL    HW2 1810   0.965   1.901   0.165
  619SOL     OW 1811   1.716   2.009   0.498
  619SOL    HW1 1812   1.794   1.999   0.436
  619SOL    HW2 1813   1.700   1.923   0.546
  620SOL     OW 1814   1.394   3.433   0.485
  620SOL    HW1 1815   1.461   3.461   0.416
  620SOL    HW2 1816   1.343   3.513   0.517
  621SOL     OW 1817   0.145   3.652   1.853
  621SOL    HW1 1818   0.093   3.587   1.909
  621SOL    HW2 1819   0.185   3.722   1.912
  622SOL     OW 1820   1.281   2.788   0.664
  622SOL    HW1 1821   1.357   2.723   0.679
  622SOL    HW2 1822   1.314   2.866   0.611
  623SOL     OW 1823   0.808   3.139   1.428
  623SOL    HW1 1824   0.778   3.180   1.514
  623SOL    HW2 1825   0.740   3.156   1.357
  624SOL     OW 1826   0.670   3.478   0.170
  624SOL    HW1 1827   0.682   3.503   0.074
  624SOL    HW2 1828   0.611   3.398   0.175
  625SOL     OW 1829   1.619   3.608   1.390
  625SOL    HW1 1830   1.672   3.604   1.305
  625SOL    HW2 1831   1.604   3.703   1.416
  626SOL     OW 1832   1.842   2.038   0.948
  626SOL    HW1 1833   1.874   1.943   0.942
  626SOL    HW2 1834   1.745   2.043   0.924
  627SOL     OW 1835   0.263   2.176   0.720
  627SOL    HW1 1836   0.177   2.218   0.690
  627SOL    HW2 1837   0.260   2.163   0.819
  628SOL     OW 1838   1.207   3.467   0.027
  628SOL    HW1 1839   1.201   3.373   0.060
  628SOL    HW2 1840   1.152   3.477  -0.055
  629SOL     OW 1841   0.824   2.871   1.377
  629SOL    HW1 1842   0.874   2.857   1.292
  629SOL    HW2 1843   0.822   2.969   1.398
  630SOL     OW 1844   0.924   2.778   0.293
  630SOL    HW1 1845   0.978   2.804   0.213
  630SOL    HW2 1846   0.970   2.703   0.340
  631SOL     OW 1847   1.493   3.483   0.043
  631SOL    HW1 1848   1.393   3.481   0.039
  631SOL    HW2 1849   1.530   3.497  -0.049
  632SOL     OW 1850   0.368   3.163   1.486
  632SOL    HW1 1851   0.358   3.246   1.431
  632SOL    HW2 1852   0.288   3.105   1.474
  633SOL     OW 1853   1.614   3.145   1.284
  633SOL    HW1 1854   1.678   3.129   1.358
  633SOL    HW2 1855   1.549   3.216   1.311
  634SOL     OW 1856   1.058   2.968   0.712
  634SOL    HW1 1857   0.982   2.918   0.753
  634SOL    HW2 1858   1.125   2.903   0.676
  635SOL     OW 1859   1.024   2.101   0.961
  635SOL    HW1 1860   1.016   2.053   0.874
  635SOL    HW2 1861   1.016   2.035   1.036
  636SOL     OW 1862   0.606   3.348   0.481
  636SOL    HW1 1863   0.651   3.294   0.409
  636SOL    HW2 1864   0.528   3.396   0.441
  637SOL     OW 1865   0.261   3.202   0.290
  637SOL    HW1 1866   0.170   3.198   0.250
  637SOL    HW2 1867   0.255   3.245   0.380
  638SOL     OW 1868   0.107   2.875   1.716
  638SOL    HW1 1869   0.032   2.854   1.779
  638SOL    HW2 1870   0.193   2.845   1.756
  639SOL     OW 1871   0.678   2.058   1.500
  639SOL    HW1 1872   0.763   2.033   1.454
  639SOL    HW2 1873   0.698   2.091   1.592
  640SOL     OW 1874   0.083   2.209   3.831
  640SOL    HW1 1875  -0.014   2.185   3.834
  640SOL    HW2 1876   0.098   2.282   3.764
  641SOL     OW 1877   1.428   2.726   1.398
  641SOL    HW1 1878   1.372   2.788   1.343
  641SOL    HW2 1879   1.522   2.726   1.363
  642SOL     OW 1880   0.052   2.003   0.299
  642SOL    HW1 1881   0.048   2.094   0.259
  642SOL    HW2 1882   0.138   1.959   0.273
  643SOL     OW 1883   1.185   3.206   0.120
  643SOL    HW1 1884   1.090   3.179   0.107
  643SOL    HW2 1885   1.209   3.200   0.217
  644SOL     OW 1886   0.621   2.694   1.434
  644SOL    HW1 1887   0.679   2.775   1.419
  644SOL    HW2 1888   0.679   2.613   1.443
  645SOL     OW 1889   1.489   3.638   0.985
  645SOL    HW1 1890   1.512   3.679   0.897
  645SOL    HW2 1891   1.572   3.621   1.037
  646SOL     OW 1892   0.720   2.422   1.704
  646SOL    HW1 1893   0.764   2.491   1.762
  646SOL    HW2 1894   0.744   2.331   1.737
  647SOL     OW 1895   1.473   3.061   1.635
  647SOL    HW1 1896   1.458   3.074   1.733
  647SOL    HW2 1897   1.569   3.078   1.614
  648SOL     OW 1898   0.390   3.612   1.576
  648SOL    HW1 1899   0.303   3.658   1.556
  648SOL    HW2 1900   0.372   3.526   1.624
  649SOL     OW 1901   1.668   2.742   1.254
  649SOL    HW1 1902   1.663   2.653   1.210
  649SOL    HW2 1903   1.656   2.814   1.186
  650SOL     OW 1904   1.219   2.177   0.461
  650SOL    HW1 1905   1.285   2.103   0.449
  650SOL    HW2 1906   1.246   2.233   0.540
  651SOL     OW 1907   0.586   2.598   0.668
  651SOL    HW1 1908   0.628   2.689   0.658
  651SOL    HW2 1909   0.515   2.587   0.598
  652SOL     OW 1910   1.767   2.220   1.595
  652SOL    HW1 1911   1.738   2.267   1.512
  652SOL    HW2 1912   1.687   2.186   1.644
  653SOL     OW 1913   1.753   2.793   1.510
  653SOL    HW1 1914   1.740   2.890   1.532
  653SOL    HW2 1915   1.733   2.779   1.413
  654SOL     OW 1916   0.880   3.224   0.029
  654SOL    HW1 1917   0.828   3.232   0.114
  654SOL    HW2 1918   0.876   3.310  -0.022
  655SOL     OW 1919   0.664   3.657   0.940
  655SOL    HW1 1920   0.655   3.756   0.931
  655SOL    HW2 1921   0.760   3.631   0.929
  656SOL     OW 1922   0.869   2.831   0.857
  656SOL    HW1 1923   0.920   2.754   0.894
  656SOL    HW2 1924   0.827   2.884   0.931
  657SOL     OW 1925   1.071   2.842   0.071
  657SOL    HW1 1926   1.055   2.904  -0.005
  657SOL    HW2 1927   1.153   2.787   0.053
  658SOL     OW 1928   1.851   3.427   0.852
  658SOL    HW1 1929   1.778   3.415   0.784
  658SOL    HW2 1930   1.842   3.357   0.923
  659SOL     OW 1931   0.230   3.166   1.859
  659SOL    HW1 1932   0.159   3.102   1.829
  659SOL    HW2 1933   0.225   3.177   1.958
  660SOL     OW 1934   0.092   3.098   0.658
  660SOL    HW1 1935   0.098   3.061   0.751
  660SOL    HW2 1936   0.154   3.048   0.598
  661SOL     OW 1937   0.683   3.264   1.634
  661SOL    HW1 1938   0.600   3.216   1.662
  661SOL    HW2 1939   0.682   3.358   1.670
  662SOL     OW 1940   0.429   2.292   0.525
  662SOL    HW1 1941   0.465   2.222   0.463
  662SOL    HW2 1942   0.381   2.247   0.601
  663SOL     OW 1943   1.698   3.344   1.092
  663SOL    HW1 1944   1.614   3.326   1.040
  663SOL    HW2 1945   1.708   3.274   1.163
  664SOL     OW 1946   0.332   2.418   1.290
  664SOL    HW1 1947   0.390   2.362   1.349
  664SOL    HW2 1948   0.346   2.391   1.194
  665SOL     OW 1949   0.828   3.441   0.675
  665SOL    HW1 1950   0.817   3.477   0.583
  665SOL    HW2 1951   0.751   3.380   0.696
  666SOL     OW 1952   1.006   1.880   1.138
  666SOL    HW1 1953   0.943   1.816   1.094
  666SOL    HW2 1954   1.096   1.837   1.148
  667SOL     OW 1955   0.777   3.191   0.313
  667SOL    HW1 1956   0.745   3.097   0.326
  667SOL    HW2 1957   0.860   3.206   0.365
  668SOL     OW 1958   0.623   3.419   1.289
  668SOL    HW1 1959   0.621   3.505   1.341
  668SOL    HW2 1960   0.713   3.406   1.248
  669SOL     OW 1961   1.350   1.915   0.169
  669SOL    HW1 1962   1.391   1.852   0.103
  669SOL    HW2 1963   1.257   1.885   0.190
  670SOL     OW 1964   1.292   2.321   0.687
  670SOL    HW1 1965   1.238   2.405   0.691
  670SOL    HW2 1966   1.290   2.276   0.776
  671SOL     OW 1967   1.576   2.083   0.875
  671SOL    HW1 1968   1.477   2.073   0.878
  671SOL    HW2 1969   1.600   2.161   0.817
  672SOL     OW 1970   0.042   2.928   0.289
  672SOL    HW1 1971   0.138   2.904   0.279
  672SOL    HW2 1972  -0.010   2.849   0.321
  673SOL     OW 1973   0.875   3.532   0.358
  673SOL    HW1 1974   0.805   3.501   0.293
  673SOL    HW2 1975   0.849   3.621   0.395
  674SOL     OW 1976   0.230   2.483   1.981
  674SOL    HW1 1977   0.141   2.486   2.025
  674SOL    HW2 1978   0.220   2.457   1.885
  675SOL     OW 1979   0.208   2.136   2.855
  675SOL    HW1 1980   0.246   2.106   2.943
  675SOL    HW2 1981   0.116   2.099   2.844
  676SOL     OW 1982   3.853   2.254   2.496
  676SOL    HW1 1983   3.769   2.269   2.550
  676SOL    HW2 1984   3.837   2.182   2.429
  677SOL     OW 1985   0.567   3.156   3.043
  677SOL    HW1 1986   0.476   3.154   3.002
  677SOL    HW2 1987   0.586   3.248   3.079
  678SOL     OW 1988   1.558   3.370   2.569
  678SOL    HW1 1989   1.518   3.348   2.658
  678SOL    HW2 1990   1.486   3.376   2.501
  679SOL     OW 1991   1.130   2.566   2.558
  679SOL    HW1 1992   1.184   2.649   2.542
  679SOL    HW2 1993   1.081   2.575   2.645
  680SOL     OW 1994   0.747   3.004   2.901
  680SOL    HW1 1995   0.678   3.039   2.965
  680SOL    HW2 1996   0.791   3.082   2.855
  681SOL     OW 1997   0.859   2.640   3.684
  681SOL    HW1 1998   0.839   2.715   3.747
  681SOL    HW2 1999   0.893   2.678   3.597
  682SOL     OW 2000   0.683   2.862   2.512
  682SOL    HW1 2001   0.754   2.851   2.581
  682SOL    HW2 2002   0.608   2.917   2.550
  683SOL     OW 2003   0.713   3.014   3.694
  683SOL    HW1 2004   0.758   3.097   3.727
  683SOL    HW2 2005   0.627   3.038   3.648
  684SOL     OW 2006   0.328   3.284   2.927
  684SOL    HW1 2007   0.250   3.243   2.878
  684SOL    HW2 2008   0.381   3.340   2.864
  685SOL     OW 2009   1.460   3.365   3.218
  685SOL    HW1 2010   1.513   3.449   3.224
  685SOL    HW2 2011   1.391   3.363   3.291
  686SOL     OW 2012   0.452   2.258   3.347
  686SOL    HW1 2013   0.531   2.197   3.350
  686SOL    HW2 2014   0.368   2.205   3.359
  687SOL     OW 2015   0.233   3.582   2.347
  687SOL    HW1 2016   0.244   3.664   2.402
  687SOL    HW2 2017   0.304   3.579   2.276
  688SOL     OW 2018   1.133   3.202   3.562
  688SOL    HW1 2019   1.191   3.194   3.643
  688SOL    HW2 2020   1.074   3.122   3.556
  689SOL     OW 2021   0.236   3.306   2.390
  689SOL    HW1 2022   0.220   3.404   2.394
  689SOL    HW2 2023   0.173   3.259   2.452
  690SOL     OW 2024   0.254   2.948   2.755
  690SOL    HW1 2025   0.261   2.855   2.793
  690SOL    HW2 2026   0.192   3.002   2.812
  691SOL     OW 2027   0.611   3.655   3.289
  691SOL    HW1 2028   0.527   3.639   3.341
  691SOL    HW2 2029   0.648   3.745   3.312
  692SOL     OW 2030   0.582   2.849   2.002
  692SOL    HW1 2031   0.629   2.896   1.927
  692SOL    HW2 2032   0.623   2.876   2.089
  693SOL     OW 2033   1.595   1.987   3.335
  693SOL    HW1 2034   1.610   2.068   3.277
  693SOL    HW2 2035   1.584   2.016   3.430
  694SOL     OW 2036   0.097   2.523   2.413
  694SOL    HW1 2037   0.080   2.427   2.437
  694SOL    HW2 2038   0.099   2.578   2.497
  695SOL     OW 2039   1.845   3.630   2.196
  695SOL    HW1 2040   1.909   3.600   2.267
  695SOL    HW2 2041   1.860   3.727   2.178
  696SOL     OW 2042   3.856   3.464   2.000
  696SOL    HW1 2043   3.853   3.365   2.015
  696SOL    HW2 2044   3.804   3.510   2.071
  697SOL     OW 2045   1.687   2.781   2.514
  697SOL    HW1 2046   1.782   2.752   2.528
  697SOL    HW2 2047   1.680   2.831   2.428
  698SOL     OW 2048   1.653   2.967   2.293
  698SOL    HW1 2049   1.741   2.971   2.245
  698SOL    HW2 2050   1.653   3.032   2.369
  699SOL     OW 2051   0.131   2.600   3.454
  699SOL    HW1 2052   0.230   2.612   3.451
  699SOL    HW2 2053   0.087   2.688   3.466
  700SOL     OW 2054   0.612   3.252   2.597
  700SOL    HW1 2055   0.565   3.164   2.610
  700SOL    HW2 2056   0.600   3.282   2.503
  701SOL     OW 2057   1.291   3.098   3.287
  701SOL    HW1 2058   1.320   3.028   3.221
  701SOL    HW2 2059   1.348   3.091   3.369
  702SOL     OW 2060   0.816   1.868   2.369
  702SOL    HW1 2061   0.862   1.955   2.348
  702SOL    HW2 2062   0.718   1.885   2.378
  703SOL     OW 2063   0.191   2.820   3.138
  703SOL    HW1 2064   0.281   2.778   3.123
  703SOL    HW2 2065   0.123   2.775   3.080
  704SOL     OW 2066   1.534   2.858   2.066
  704SOL    HW1 2067   1.458   2.801   2.095
  704SOL    HW2 2068   1.578   2.899   2.146
  705SOL     OW 2069   1.171   3.674   3.456
  705SOL    HW1 2070   1.232   3.723   3.394
  705SOL    HW2 2071   1.189   3.576   3.451
  706SOL     OW 2072   0.328   2.111   3.675
  706SOL    HW1 2073   0.382   2.195   3.674
  706SOL    HW2 2074   0.242   2.127   3.722
  707SOL     OW 2075   1.465   3.281   2.812
  707SOL    HW1 2076   1.397   3.300   2.883
  707SOL    HW2 2077   1.456   3.185   2.783
  708SOL     OW 2078   1.656   3.596   2.446
  708SOL    HW1 2079   1.637   3.580   2.349
  708SOL    HW2 2080   1.628   3.516   2.499
  709SOL     OW 2081   0.596   2.583   2.133
  709SOL    HW1 2082   0.602   2.667   2.080
  709SOL    HW2 2083   0.527   2.594   2.205
  710SOL     OW 2084   1.281   2.214   2.797
  710SOL    HW1 2085   1.186   2.183   2.802
  710SOL    HW2 2086   1.337   2.163   2.862
  711SOL     OW 2087   1.584   3.534   2.169
  711SOL    HW1 2088   1.678   3.567   2.167
  711SOL    HW2 2089   1.552   3.515   2.076
  712SOL     OW 2090   0.791   2.474   3.313
  712SOL    HW1 2091   0.765   2.452   3.407
  712SOL    HW2 2092   0.751   2.407   3.251
  713SOL     OW 2093   1.393   2.335   3.548
  713SOL    HW1 2094   1.412   2.399   3.624
  713SOL    HW2 2095   1.457   2.258   3.553
  714SOL     OW 2096   0.955   2.748   3.447
  714SOL    HW1 2097   1.013   2.676   3.409
  714SOL    HW2 2098   0.902   2.791   3.374
  715SOL     OW 2099   0.994   2.269   3.094
  715SOL    HW1 2100   0.905   2.293   3.134
  715SOL    HW2 2101   0.979   2.221   3.008
  716SOL     OW 2102   1.049   2.561   2.288
  716SOL    HW1 2103   1.070   2.556   2.385
  716SOL    HW2 2104   0.963   2.512   2.270
  717SOL     OW 2105   0.093   2.676   2.638
  717SOL    HW1 2106   0.177   2.671   2.691
  717SOL    HW2 2107   0.040   2.757   2.666
  718SOL     OW 2108   0.133   3.710   3.461
  718SOL    HW1 2109   0.121   3.673   3.553
  718SOL    HW2 2110   0.046   3.704   3.412
  719SOL     OW 2111   0.894   2.214   2.058
  719SOL    HW1 2112   0.934   2.282   1.995
  719SOL    HW2 2113   0.907   2.122   2.021
  720SOL     OW 2114   1.711   2.429   3.699
  720SOL    HW1 2115   1.675   2.510   3.653
  720SOL    HW2 2116   1.745   2.364   3.631
  721SOL     OW 2117   1.378   3.005   2.398
  721SOL    HW1 2118   1.463   2.989   2.347
  721SOL    HW2 2119   1.323   3.072   2.348
  722SOL     OW 2120   0.546   2.039   2.761
  722SOL    HW1 2121   0.551   2.067   2.857
  722SOL    HW2 2122   0.550   2.119   2.702
  723SOL     OW 2123   0.998   3.307   2.327
  723SOL    HW1 2124   0.958   3.387   2.282
  723SOL    HW2 2125   0.986   3.315   2.426
  724SOL     OW 2126   0.343   3.674   2.708
  724SOL    HW1 2127   0.379   3.581   2.716
  724SOL    HW2 2128   0.417   3.740   2.724
  725SOL     OW 2129   1.793   2.936   2.737
  725SOL    HW1 2130   1.741   2.909   2.657
  725SOL    HW2 2131   1.733   2.935   2.817
  726SOL     OW 2132   1.224   3.396   3.376
  726SOL    HW1 2133   1.207   3.325   3.444
  726SOL    HW2 2134   1.161   3.384   3.299
  727SOL     OW 2135   0.319   2.815   2.114
  727SOL    HW1 2136   0.406   2.843   2.074
  727SOL    HW2 2137   0.290   2.727   2.075
  728SOL     OW 2138   1.479   2.608   2.587
  728SOL    HW1 2139   1.478   2.556   2.672
  728SOL    HW2 2140   1.562   2.665   2.584
  729SOL     OW 2141   0.465   3.117   3.596
  729SOL    HW1 2142   0.436   3.126   3.501
  729SOL    HW2 2143   0.387   3.131   3.657
  730SOL     OW 2144   1.094   3.654   2.079
  730SOL    HW1 2145   1.038   3.599   2.142
  730SOL    HW2 2146   1.142   3.593   2.016
  731SOL     OW 2147   0.203   2.145   3.357
  731SOL    HW1 2148   0.123   2.205   3.345
  731SOL    HW2 2149   0.178   2.069   3.416
  732SOL     OW 2150   1.625   3.242   1.949
  732SOL    HW1 2151   1.586   3.333   1.934
  732SOL    HW2 2152   1.556   3.172   1.931
  733SOL     OW 2153   0.472   3.618   2.195
  733SOL    HW1 2154   0.517   3.688   2.250
  733SOL    HW2 2155   0.537   3.580   2.129
  734SOL     OW 2156   1.403   1.964   2.293
  734SOL    HW1 2157   1.390   1.948   2.196
  734SOL    HW2 2158   1.498   1.990   2.310
  735SOL     OW 2159   0.243   3.655   3.098
  735SOL    HW1 2160   0.300   3.583   3.138
  735SOL    HW2 2161   0.229   3.636   3.001
  736SOL     OW 2162   0.931   3.594   2.742
  736SOL    HW1 2163   1.007   3.547   2.788
  736SOL    HW2 2164   0.896   3.536   2.668
  737SOL     OW 2165   0.391   2.552   2.337
  737SOL    HW1 2166   0.412   2.455   2.350
  737SOL    HW2 2167   0.294   2.568   2.352
  738SOL     OW 2168   1.534   2.088   3.607
  738SOL    HW1 2169   1.548   2.106   3.704
  738SOL    HW2 2170   1.465   2.017   3.596
  739SOL     OW 2171   0.637   1.981   1.965
  739SOL    HW1 2172   0.709   1.914   1.985
  739SOL    HW2 2173   0.582   1.949   1.888
  740SOL     OW 2174   0.771   2.138   3.617
  740SOL    HW1 2175   0.850   2.077   3.621
  740SOL    HW2 2176   0.712   2.121   3.696
  741SOL     OW 2177   0.874   3.375   3.055
  741SOL    HW1 2178   0.856   3.340   2.963
  741SOL    HW2 2179   0.948   3.322   3.097
  742SOL     OW 2180   1.340   2.450   3.297
  742SOL    HW1 2181   1.371   2.417   3.386
  742SOL    HW2 2182   1.374   2.543   3.282
  743SOL     OW 2183   0.819   3.255   2.802
  743SOL    HW1 2184   0.909   3.243   2.759
  743SOL    HW2 2185   0.748   3.257   2.731
  744SOL     OW 2186   0.926   2.369   2.762
  744SOL    HW1 2187   0.900   2.362   2.665
  744SOL    HW2 2188   0.960   2.280   2.793
  745SOL     OW 2189   0.547   1.925   2.358
  745SOL    HW1 2190   0.464   1.923   2.415
  745SOL    HW2 2191   0.544   2.006   2.300
  746SOL     OW 2192   1.427   3.059   1.906
  746SOL    HW1 2193   1.459   2.981   1.958
  746SOL    HW2 2194   1.337   3.088   1.941
  747SOL     OW 2195   0.288   1.908   2.047
  747SOL    HW1 2196   0.341   1.982   2.005
  747SOL    HW2 2197   0.350   1.843   2.090
  748SOL     OW 2198   0.944   2.111   2.320
  748SOL    HW1 2199   0.911   2.154   2.236
  748SOL    HW2 2200   1.043   2.124   2.328
  749SOL     OW 2201   1.079   2.544   3.319
  749SOL    HW1 2202   1.003   2.480   3.321
  749SOL    HW2 2203   1.165   2.494   3.312
  750SOL     OW 2204   1.225   3.424   2.652
  750SOL    HW1 2205   1.242   3.495   2.584
  750SOL    HW2 2206   1.289   3.436   2.728
  751SOL     OW 2207   0.465   3.012   2.594
  751SOL    HW1 2208   0.395   2.992   2.662
  751SOL    HW2 2209   0.427   2.999   2.502
  752SOL     OW 2210   1.276   3.663   2.459
  752SOL    HW1 2211   1.324   3.729   2.402
  752SOL    HW2 2212   1.206   3.710   2.512
  753SOL     OW 2213   1.019   2.400   1.890
  753SOL    HW1 2214   0.975   2.486   1.865
  753SOL    HW2 2215   1.088   2.417   1.961
  754SOL     OW 2216   0.081   2.413   3.255
  754SOL    HW1 2217   0.174   2.412   3.219
  754SOL    HW2 2218   0.073   2.482   3.326
  755SOL     OW 2219   0.559   2.086   3.033
  755SOL    HW1 2220   0.607   2.007   3.073
  755SOL    HW2 2221   0.463   2.084   3.061
  756SOL     OW 2222   0.865   2.320   2.500
  756SOL    HW1 2223   0.818   2.382   2.436
  756SOL    HW2 2224   0.894   2.238   2.451
  757SOL     OW 2225   1.017   1.914   2.610
  757SOL    HW1 2226   0.957   1.915   2.530
  757SOL    HW2 2227   0.992   1.838   2.670
  758SOL     OW 2228   1.443   3.023   2.720
  758SOL    HW1 2229   1.369   2.956   2.725
  758SOL    HW2 2230   1.471   3.035   2.625
  759SOL     OW 2231   1.462   2.469   2.841
  759SOL    HW1 2232   1.405   2.387   2.840
  759SOL    HW2 2233   1.530   2.461   2.914
  760SOL     OW 2234   1.847   2.680   2.233
  760SOL    HW1 2235   1.865   2.634   2.320
  760SOL    HW2 2236   1.805   2.616   2.169
  761SOL     OW 2237   0.487   3.281   2.019
  761SOL    HW1 2238   0.406   3.254   2.071
  761SOL    HW2 2239   0.478   3.248   1.925
  762SOL     OW 2240   1.673   3.129   2.504
  762SOL    HW1 2241   1.772   3.128   2.517
  762SOL    HW2 2242   1.637   3.219   2.527
  763SOL     OW 2243   1.390   2.435   1.941
  763SOL    HW1 2244   1.320   2.414   2.009
  763SOL    HW2 2245   1.480   2.424   1.982
  764SOL     OW 2246   0.528   2.126   2.175
  764SOL    HW1 2247   0.574   2.073   2.104
  764SOL    HW2 2248   0.501   2.215   2.137
  765SOL     OW 2249   1.753   3.103   3.429
  765SOL    HW1 2250   1.842   3.058   3.417
  765SOL    HW2 2251   1.767   3.198   3.458
  766SOL     OW 2252   1.056   3.212   3.199
  766SOL    HW1 2253   0.975   3.183   3.249
  766SOL    HW2 2254   1.137   3.171   3.241
  767SOL     OW 2255   1.614   3.491   3.511
  767SOL    HW1 2256   1.603   3.529   3.420
  767SOL    HW2 2257   1.699   3.438   3.515
  768SOL     OW 2258   1.134   3.077   2.968
  768SOL    HW1 2259   1.075   3.112   3.040
  768SOL    HW2 2260   1.100   3.108   2.879
  769SOL     OW 2261   1.622   2.958   2.945
  769SOL    HW1 2262   1.618   3.025   3.020
  769SOL    HW2 2263   1.545   2.974   2.883
  770SOL     OW 2264   0.923   1.957   3.255
  770SOL    HW1 2265   0.942   1.934   3.160
  770SOL    HW2 2266   1.003   2.001   3.296
  771SOL     OW 2267   0.974   2.981   3.588
  771SOL    HW1 2268   0.879   2.991   3.617
  771SOL    HW2 2269   0.984   2.896   3.535
  772SOL     OW 2270   0.711   2.920   2.235
  772SOL    HW1 2271   0.694   2.904   2.332
  772SOL    HW2 2272   0.791   2.866   2.206
  773SOL     OW 2273   0.424   2.675   3.115
  773SOL    HW1 2274   0.496   2.689   3.183
  773SOL    HW2 2275   0.384   2.585   3.126
  774SOL     OW 2276   1.263   2.239   3.140
  774SOL    HW1 2277   1.301   2.318   3.188
  774SOL    HW2 2278   1.168   2.257   3.115
  775SOL     OW 2279   0.061   3.434   3.222
  775SOL    HW1 2280   0.042   3.513   3.163
  775SOL    HW2 2281   0.160   3.422   3.231
  776SOL     OW 2282   0.347   2.975   2.350
  776SOL    HW1 2283   0.348   3.057   2.293
  776SOL    HW2 2284   0.344   2.894   2.291
  777SOL     OW 2285   0.548   2.404   2.724
  777SOL    HW1 2286   0.562   2.463   2.645
  777SOL    HW2 2287   0.616   2.426   2.794
  778SOL     OW 2288   1.247   3.215   2.253
  778SOL    HW1 2289   1.308   3.288   2.284
  778SOL    HW2 2290   1.153   3.235   2.284
  779SOL     OW 2291   1.285   3.323   3.009
  779SOL    HW1 2292   1.344   3.328   3.090
  779SOL    HW2 2293   1.229   3.239   3.013
  780SOL     OW 2294   1.592   2.504   2.351
  780SOL    HW1 2295   1.537   2.524   2.432
  780SOL    HW2 2296   1.596   2.585   2.292
  781SOL     OW 2297   0.346   3.387   3.176
  781SOL    HW1 2298   0.328   3.344   3.087
  781SOL    HW2 2299   0.444   3.403   3.186
  782SOL     OW 2300   0.416   2.605   3.463
  782SOL    HW1 2301   0.480   2.655   3.404
  782SOL    HW2 2302   0.451   2.513   3.480
  783SOL     OW 2303   1.604   2.643   3.553
  783SOL    HW1 2304   1.514   2.686   3.550
  783SOL    HW2 2305   1.662   2.680   3.479
  784SOL     OW 2306   1.004   1.984   3.632
  784SOL    HW1 2307   1.056   2.065   3.605
  784SOL    HW2 2308   1.048   1.902   3.594
  785SOL     OW 2309   0.501   1.900   3.621
  785SOL    HW1 2310   0.460   1.843   3.549
  785SOL    HW2 2311   0.440   1.977   3.640
  786SOL     OW 2312   0.584   2.734   2.896
  786SOL    HW1 2313   0.620   2.827   2.892
  786SOL    HW2 2314   0.525   2.724   2.975
  787SOL     OW 2315   1.355   2.720   2.890
  787SOL    HW1 2316   1.266   2.714   2.843
  787SOL    HW2 2317   1.403   2.632   2.881
  788SOL     OW 2318   1.196   2.389   2.128
  788SOL    HW1 2319   1.211   2.306   2.182
  788SOL    HW2 2320   1.152   2.459   2.184
  789SOL     OW 2321   0.296   2.058   3.106
  789SOL    HW1 2322   0.262   2.097   3.192
  789SOL    HW2 2323   0.281   1.959   3.105
  790SOL     OW 2324   0.040   3.171   3.138
  790SOL    HW1 2325   0.075   3.112   3.210
  790SOL    HW2 2326   0.040   3.266   3.169
  791SOL     OW 2327   0.724   2.493   2.918
  791SOL    HW1 2328   0.801   2.472   2.857
  791SOL    HW2 2329   0.690   2.585   2.898
  792SOL     OW 2330   1.741   2.824   3.710
  792SOL    HW1 2331   1.691   2.756   3.657
  792SOL    HW2 2332   1.691   2.844   3.795
  793SOL     OW 2333   0.305   1.925   2.489
  793SOL    HW1 2334   0.285   2.020   2.511
  793SOL    HW2 2335   0.312   1.873   2.574
  794SOL     OW 2336   1.586   2.239   2.273
  794SOL    HW1 2337   1.622   2.173   2.338
  794SOL    HW2 2338   1.587   2.330   2.314
  795SOL     OW 2339   1.023   2.618   2.820
  795SOL    HW1 2340   1.020   2.640   2.918
  795SOL    HW2 2341   0.996   2.522   2.807
  796SOL     OW 2342   0.991   3.432   3.593
  796SOL    HW1 2343   0.963   3.473   3.506
  796SOL    HW2 2344   1.031   3.342   3.577
  797SOL     OW 2345   1.858   3.365   3.465
  797SOL    HW1 2346   1.873   3.392   3.370
  797SOL    HW2 2347   1.942   3.379   3.517
  798SOL     OW 2348   0.338   2.775   3.665
  798SOL    HW1 2349   0.415   2.805   3.722
  798SOL    HW2 2350   0.371   2.712   3.595
  799SOL     OW 2351   1.290   2.688   1.889
  799SOL    HW1 2352   1.331   2.597   1.896
  799SOL    HW2 2353   1.320   2.731   1.803
  800SOL     OW 2354   1.068   3.197   2.716
  800SOL    HW1 2355   1.072   3.120   2.653
  800SOL    HW2 2356   1.129   3.270   2.682
  801SOL     OW 2357   0.312   2.669   2.807
  801SOL    HW1 2358   0.409   2.694   2.802
  801SOL    HW2 2359   0.304   2.575   2.841
  802SOL     OW 2360   0.327   2.382   2.876
  802SOL    HW1 2361   0.284   2.293   2.861
  802SOL    HW2 2362   0.407   2.391   2.816
  803SOL     OW 2363   1.136   2.231   3.554
  803SOL    HW1 2364   1.079   2.287   3.613
  803SOL    HW2 2365   1.228   2.271   3.548
  804SOL     OW 2366   1.161   2.066   3.335
  804SOL    HW1 2367   1.149   2.128   3.413
  804SOL    HW2 2368   1.203   2.117   3.259
  805SOL     OW 2369   3.821   3.180   2.054
  805SOL    HW1 2370   3.727   3.191   2.022
  805SOL    HW2 2371   3.834   3.087   2.089
  806SOL     OW 2372   0.077   3.648   2.803
  806SOL    HW1 2373   0.026   3.573   2.762
  806SOL    HW2 2374   0.166   3.656   2.759
  807SOL     OW 2375   0.491   3.440   2.765
  807SOL    HW1 2376   0.559   3.509   2.791
  807SOL    HW2 2377   0.533   3.372   2.705
  808SOL     OW 2378   0.978   2.656   3.087
  808SOL    HW1 2379   1.038   2.633   3.164
  808SOL    HW2 2380   0.888   2.616   3.101
  809SOL     OW 2381   0.010   2.409   2.988
  809SOL    HW1 2382   0.094   2.399   2.934
  809SOL    HW2 2383   0.033   2.410   3.085
  810SOL     OW 2384   0.179   2.371   3.608
  810SOL    HW1 2385   0.234   2.323   3.540
  810SOL    HW2 2386   0.140   2.454   3.567
  811SOL     OW 2387   1.383   2.797   3.523
  811SOL    HW1 2388   1.401   2.895   3.526
  811SOL    HW2 2389   1.375   2.767   3.428
  812SOL     OW 2390   0.817   2.433   2.222
  812SOL    HW1 2391   0.826   2.354   2.161
  812SOL    HW2 2392   0.739   2.489   2.192
  813SOL     OW 2393   1.649   2.465   3.045
  813SOL    HW1 2394   1.634   2.401   3.120
  813SOL    HW2 2395   1.745   2.463   3.018
  814SOL     OW 2396   0.265   3.417   3.598
  814SOL    HW1 2397   0.218   3.486   3.653
  814SOL    HW2 2398   0.253   3.327   3.641
  815SOL     OW 2399   0.704   2.311   3.117
  815SOL    HW1 2400   0.648   2.232   3.092
  815SOL    HW2 2401   0.702   2.379   3.044
  816SOL     OW 2402   0.918   3.537   3.342
  816SOL    HW1 2403   0.893   3.508   3.250
  816SOL    HW2 2404   0.968   3.624   3.338
  817SOL     OW 2405   0.463   2.357   2.049
  817SOL    HW1 2406   0.527   2.429   2.074
  817SOL    HW2 2407   0.373   2.397   2.032
  818SOL     OW 2408   0.146   3.002   3.331
  818SOL    HW1 2409   0.133   2.957   3.419
  818SOL    HW2 2410   0.164   2.934   3.260
  819SOL     OW 2411   1.317   2.907   3.083
  819SOL    HW1 2412   1.346   2.839   3.016
  819SOL    HW2 2413   1.248   2.967   3.043
  820SOL     OW 2414   1.317   2.717   2.161
  820SOL    HW1 2415   1.241   2.693   2.222
  820SOL    HW2 2416   1.289   2.705   2.066
  821SOL     OW 2417   1.761   3.600   3.008
  821SOL    HW1 2418   1.829   3.637   2.944
  821SOL    HW2 2419   1.743   3.505   2.985
  822SOL     OW 2420   1.243   3.598   2.969
  822SOL    HW1 2421   1.330   3.623   2.927
  822SOL    HW2 2422   1.243   3.501   2.992
  823SOL     OW 2423   0.070   3.104   2.877
  823SOL    HW1 2424   0.060   3.129   2.973
  823SOL    HW2 2425  -0.018   3.071   2.842
  824SOL     OW 2426   0.681   3.521   3.571
  824SOL    HW1 2427   0.616   3.596   3.570
  824SOL    HW2 2428   0.752   3.537   3.502
  825SOL     OW 2429   1.684   1.987   2.378
  825SOL    HW1 2430   1.783   1.999   2.372
  825SOL    HW2 2431   1.664   1.894   2.408
  826SOL     OW 2432   1.394   3.433   2.346
  826SOL    HW1 2433   1.460   3.462   2.277
  826SOL    HW2 2434   1.343   3.512   2.379
  827SOL     OW 2435   0.127   3.618   3.732
  827SOL    HW1 2436   0.080   3.569   3.805
  827SOL    HW2 2437   0.175   3.697   3.770
  828SOL     OW 2438   1.281   2.790   2.529
  828SOL    HW1 2439   1.356   2.725   2.546
  828SOL    HW2 2440   1.315   2.867   2.476
  829SOL     OW 2441   0.808   3.139   3.290
  829SOL    HW1 2442   0.779   3.177   3.378
  829SOL    HW2 2443   0.738   3.158   3.221
  830SOL     OW 2444   0.673   3.477   2.022
  830SOL    HW1 2445   0.689   3.499   1.925
  830SOL    HW2 2446   0.611   3.399   2.029
  831SOL     OW 2447   1.621   3.608   3.251
  831SOL    HW1 2448   1.673   3.605   3.165
  831SOL    HW2 2449   1.605   3.703   3.277
  832SOL     OW 2450   1.835   2.017   2.827
  832SOL    HW1 2451   1.878   1.928   2.807
  832SOL    HW2 2452   1.741   2.017   2.793
  833SOL     OW 2453   0.263   2.176   2.582
  833SOL    HW1 2454   0.177   2.218   2.552
  833SOL    HW2 2455   0.260   2.163   2.681
  834SOL     OW 2456   1.205   3.470   1.899
  834SOL    HW1 2457   1.202   3.376   1.933
  834SOL    HW2 2458   1.135   3.482   1.829
  835SOL     OW 2459   0.825   2.871   3.241
  835SOL    HW1 2460   0.875   2.857   3.155
  835SOL    HW2 2461   0.822   2.969   3.261
  836SOL     OW 2462   0.919   2.772   2.149
  836SOL    HW1 2463   0.981   2.808   2.078
  836SOL    HW2 2464   0.966   2.701   2.201
  837SOL     OW 2465   1.493   3.485   1.903
  837SOL    HW1 2466   1.393   3.486   1.896
  837SOL    HW2 2467   1.534   3.493   1.812
  838SOL     OW 2468   0.366   3.164   3.353
  838SOL    HW1 2469   0.358   3.246   3.295
  838SOL    HW2 2470   0.287   3.105   3.337
  839SOL     OW 2471   1.612   3.145   3.146
  839SOL    HW1 2472   1.679   3.131   3.219
  839SOL    HW2 2473   1.548   3.217   3.174
  840SOL     OW 2474   1.058   2.967   2.574
  840SOL    HW1 2475   0.982   2.917   2.615
  840SOL    HW2 2476   1.127   2.903   2.541
  841SOL     OW 2477   1.023   2.101   2.829
  841SOL    HW1 2478   1.018   2.057   2.740
  841SOL    HW2 2479   1.019   2.032   2.901
  842SOL     OW 2480   0.604   3.347   2.343
  842SOL    HW1 2481   0.652   3.295   2.273
  842SOL    HW2 2482   0.531   3.400   2.300
  843SOL     OW 2483   1.727   2.257   3.241
  843SOL    HW1 2484   1.803   2.321   3.250
  843SOL    HW2 2485   1.754   2.181   3.182
  844SOL     OW 2486   0.244   3.210   2.142
  844SOL    HW1 2487   0.147   3.201   2.121
  844SOL    HW2 2488   0.255   3.249   2.233
  845SOL     OW 2489   0.103   2.882   3.579
  845SOL    HW1 2490   0.025   2.855   3.636
  845SOL    HW2 2491   0.187   2.844   3.618
  846SOL     OW 2492   0.683   2.058   3.361
  846SOL    HW1 2493   0.768   2.034   3.315
  846SOL    HW2 2494   0.702   2.090   3.454
  847SOL     OW 2495   0.072   2.193   1.884
  847SOL    HW1 2496  -0.024   2.176   1.863
  847SOL    HW2 2497   0.105   2.271   1.831
  848SOL     OW 2498   1.424   2.718   3.259
  848SOL    HW1 2499   1.369   2.782   3.205
  848SOL    HW2 2500   1.518   2.719   3.225
  849SOL     OW 2501   0.049   2.006   2.164
  849SOL    HW1 2502   0.041   2.091   2.113
  849SOL    HW2 2503   0.137   1.963   2.143
  850SOL     OW 2504   1.181   3.201   1.981
  850SOL    HW1 2505   1.085   3.174   1.974
  850SOL    HW2 2506   1.209   3.201   2.078
  851SOL     OW 2507   0.623   2.692   3.296
  851SOL    HW1 2508   0.680   2.773   3.281
  851SOL    HW2 2509   0.682   2.612   3.305
  852SOL     OW 2510   1.489   3.638   2.847
  852SOL    HW1 2511   1.512   3.679   2.759
  852SOL    HW2 2512   1.572   3.621   2.899
  853SOL     OW 2513   0.724   2.424   3.568
  853SOL    HW1 2514   0.766   2.494   3.626
  853SOL    HW2 2515   0.750   2.333   3.601
  854SOL     OW 2516   1.472   3.062   3.513
  854SOL    HW1 2517   1.465   3.088   3.609
  854SOL    HW2 2518   1.566   3.075   3.482
  855SOL     OW 2519   0.389   3.613   3.437
  855SOL    HW1 2520   0.301   3.659   3.423
  855SOL    HW2 2521   0.374   3.525   3.482
  856SOL     OW 2522   1.666   2.741   3.119
  856SOL    HW1 2523   1.662   2.650   3.077
  856SOL    HW2 2524   1.654   2.811   3.049
  857SOL     OW 2525   1.217   2.176   2.319
  857SOL    HW1 2526   1.285   2.105   2.306
  857SOL    HW2 2527   1.241   2.231   2.399
  858SOL     OW 2528   0.586   2.599   2.530
  858SOL    HW1 2529   0.628   2.689   2.520
  858SOL    HW2 2530   0.515   2.587   2.460
  859SOL     OW 2531   1.757   2.229   3.512
  859SOL    HW1 2532   1.740   2.242   3.414
  859SOL    HW2 2533   1.688   2.167   3.550
  860SOL     OW 2534   1.750   2.791   3.374
  860SOL    HW1 2535   1.740   2.888   3.395
  860SOL    HW2 2536   1.730   2.776   3.277
  861SOL     OW 2537   0.868   3.227   1.904
  861SOL    HW1 2538   0.823   3.250   1.990
  861SOL    HW2 2539   0.882   3.310   1.850
  862SOL     OW 2540   0.664   3.657   2.802
  862SOL    HW1 2541   0.655   3.756   2.792
  862SOL    HW2 2542   0.760   3.631   2.791
  863SOL     OW 2543   0.868   2.832   2.718
  863SOL    HW1 2544   0.919   2.754   2.755
  863SOL    HW2 2545   0.828   2.883   2.793
  864SOL     OW 2546   1.079   2.852   1.946
  864SOL    HW1 2547   1.050   2.905   1.867
  864SOL    HW2 2548   1.156   2.793   1.921
  865SOL     OW 2549   1.851   3.427   2.714
  865SOL    HW1 2550   1.778   3.414   2.647
  865SOL    HW2 2551   1.844   3.357   2.784
  866SOL     OW 2552   0.220   3.166   3.728
  866SOL    HW1 2553   0.169   3.096   3.680
  866SOL    HW2 2554   0.185   3.175   3.822
  867SOL     OW 2555   0.094   3.098   2.519
  867SOL    HW1 2556   0.097   3.062   2.612
  867SOL    HW2 2557   0.156   3.046   2.460
  868SOL     OW 2558   0.687   3.256   3.504
  868SOL    HW1 2559   0.601   3.212   3.531
  868SOL    HW2 2560   0.686   3.352   3.532
  869SOL     OW 2561   1.805   2.045   3.098
  869SOL    HW1 2562   1.826   1.952   3.130
  869SOL    HW2 2563   1.816   2.049   2.999
  870SOL     OW 2564   0.428   2.292   2.387
  870SOL    HW1 2565   0.465   2.222   2.326
  870SOL    HW2 2566   0.380   2.248   2.463
  871SOL     OW 2567   1.697   3.344   2.955
  871SOL    HW1 2568   1.614   3.326   2.902
  871SOL    HW2 2569   1.709   3.274   3.025
  872SOL     OW 2570   0.332   2.418   3.152
  872SOL    HW1 2571   0.391   2.362   3.211
  872SOL    HW2 2572   0.346   2.391   3.057
  873SOL     OW 2573   0.828   3.441   2.536
  873SOL    HW1 2574   0.817   3.479   2.444
  873SOL    HW2 2575   0.751   3.380   2.556
  874SOL     OW 2576   1.430   2.085   2.985
  874SOL    HW1 2577   1.453   1.998   3.029
  874SOL    HW2 2578   1.376   2.142   3.048
  875SOL     OW 2579   1.009   1.878   3.002
  875SOL    HW1 2580   0.946   1.814   2.958
  875SOL    HW2 2581   1.101   1.839   3.003
  876SOL     OW 2582   0.774   3.192   2.181
  876SOL    HW1 2583   0.743   3.098   2.188
  876SOL    HW2 2584   0.860   3.203   2.232
  877SOL     OW 2585   0.623   3.419   3.151
  877SOL    HW1 2586   0.620   3.505   3.201
  877SOL    HW2 2587   0.713   3.406   3.110
  878SOL     OW 2588   1.345   1.907   2.030
  878SOL    HW1 2589   1.376   1.850   1.954
  878SOL    HW2 2590   1.255   1.877   2.061
  879SOL     OW 2591   1.275   2.320   2.542
  879SOL    HW1 2592   1.230   2.409   2.547
  879SOL    HW2 2593   1.283   2.283   2.635
  880SOL     OW 2594   1.570   2.036   2.751
  880SOL    HW1 2595   1.519   2.060   2.834
  880SOL    HW2 2596   1.542   2.096   2.676
  881SOL     OW 2597   0.042   2.926   2.150
  881SOL    HW1 2598   0.139   2.901   2.145
  881SOL    HW2 2599  -0.011   2.847   2.181
  882SOL     OW 2600   0.870   3.529   2.221
  882SOL    HW1 2601   0.805   3.501   2.150
  882SOL    HW2 2602   0.848   3.620   2.253
  883SOL     OW 2603   0.896   3.842   1.991
  883SOL    HW1 2604   0.936   3.871   1.904
  883SOL    HW2 2605   0.956   3.777   2.036
  884SOL     OW 2606   2.089   0.628   0.121
  884SOL    HW1 2607   1.997   0.617   0.158
  884SOL    HW2 2608   2.086   0.622   0.021
  885SOL     OW 2609   2.079   0.283   0.995
  885SOL    HW1 2610   2.115   0.248   1.082
  885SOL    HW2 2611   1.990   0.240   0.977
  886SOL     OW 2612   1.866   0.388   0.633
  886SOL    HW1 2613   1.780   0.415   0.676
  886SOL    HW2 2614   1.852   0.306   0.577
  887SOL     OW 2615   2.433   1.293   1.174
  887SOL    HW1 2616   2.340   1.287   1.139
  887SOL    HW2 2617   2.450   1.384   1.212
  888SOL     OW 2618   3.418   1.510   0.705
  888SOL    HW1 2619   3.379   1.488   0.794
  888SOL    HW2 2620   3.345   1.517   0.637
  889SOL     OW 2621   2.994   0.702   0.697
  889SOL    HW1 2622   3.046   0.786   0.680
  889SOL    HW2 2623   2.944   0.711   0.783
  890SOL     OW 2624   3.619   0.614   0.228
  890SOL    HW1 2625   3.601   0.610   0.129
  890SOL    HW2 2626   3.584   0.531   0.271
  891SOL     OW 2627   2.613   1.141   1.038
  891SOL    HW1 2628   2.542   1.176   1.100
  891SOL    HW2 2629   2.657   1.218   0.991
  892SOL     OW 2630   2.733   0.768   1.820
  892SOL    HW1 2631   2.720   0.836   1.892
  892SOL    HW2 2632   2.757   0.814   1.735
  893SOL     OW 2633   2.545   1.000   0.650
  893SOL    HW1 2634   2.616   0.989   0.719
  893SOL    HW2 2635   2.471   1.055   0.687
  894SOL     OW 2636   2.573   1.155   1.813
  894SOL    HW1 2637   2.623   1.231   1.855
  894SOL    HW2 2638   2.511   1.191   1.744
  895SOL     OW 2639   2.186   1.427   1.072
  895SOL    HW1 2640   2.110   1.386   1.022
  895SOL    HW2 2641   2.243   1.480   1.009
  896SOL     OW 2642   3.323   1.499   1.355
  896SOL    HW1 2643   3.378   1.582   1.363
  896SOL    HW2 2644   3.253   1.498   1.426
  897SOL     OW 2645   2.312   0.395   1.481
  897SOL    HW1 2646   2.394   0.338   1.487
  897SOL    HW2 2647   2.231   0.339   1.496
  898SOL     OW 2648   3.459   0.442   0.741
  898SOL    HW1 2649   3.380   0.463   0.684
  898SOL    HW2 2650   3.498   0.527   0.777
  899SOL     OW 2651   2.083   1.713   0.472
  899SOL    HW1 2652   2.099   1.793   0.531
  899SOL    HW2 2653   2.159   1.703   0.408
  900SOL     OW 2654   3.000   1.340   1.697
  900SOL    HW1 2655   3.046   1.340   1.786
  900SOL    HW2 2656   2.944   1.258   1.688
  901SOL     OW 2657   2.088   1.443   0.535
  901SOL    HW1 2658   2.077   1.543   0.534
  901SOL    HW2 2659   2.029   1.403   0.605
  902SOL     OW 2660   2.124   1.092   0.900
  902SOL    HW1 2661   2.124   0.998   0.933
  902SOL    HW2 2662   2.063   1.148   0.957
  903SOL     OW 2663   2.477   1.801   1.423
  903SOL    HW1 2664   2.393   1.781   1.472
  903SOL    HW2 2665   2.510   1.892   1.448
  904SOL     OW 2666   2.448   0.985   0.144
  904SOL    HW1 2667   2.489   1.030   0.065
  904SOL    HW2 2668   2.492   1.017   0.227
  905SOL     OW 2669   3.456   0.108   1.469
  905SOL    HW1 2670   3.471   0.184   1.406
  905SOL    HW2 2671   3.455   0.142   1.563
  906SOL     OW 2672   1.974   0.659   0.563
  906SOL    HW1 2673   1.947   0.565   0.580
  906SOL    HW2 2674   1.969   0.712   0.648
  907SOL     OW 2675   3.732   1.773   0.326
  907SOL    HW1 2676   3.756   1.735   0.415
  907SOL    HW2 2677   3.786   1.855   0.309
  908SOL     OW 2678   1.893   1.608   0.099
  908SOL    HW1 2679   1.884   1.511   0.122
  908SOL    HW2 2680   1.878   1.663   0.181
  909SOL     OW 2681   3.561   0.921   0.646
  909SOL    HW1 2682   3.643   0.874   0.615
  909SOL    HW2 2683   3.526   0.979   0.573
  910SOL     OW 2684   3.508   1.106   0.436
  910SOL    HW1 2685   3.590   1.109   0.379
  910SOL    HW2 2686   3.515   1.173   0.509
  911SOL     OW 2687   1.992   0.744   1.584
  911SOL    HW1 2688   2.091   0.758   1.584
  911SOL    HW2 2689   1.946   0.829   1.609
  912SOL     OW 2690   2.473   1.389   0.734
  912SOL    HW1 2691   2.427   1.301   0.747
  912SOL    HW2 2692   2.461   1.420   0.640
  913SOL     OW 2693   3.152   1.236   1.422
  913SOL    HW1 2694   3.178   1.165   1.357
  913SOL    HW2 2695   3.210   1.231   1.503
  914SOL     OW 2696   2.683   0.004   0.514
  914SOL    HW1 2697   2.725   0.091   0.490
  914SOL    HW2 2698   2.583   0.013   0.514
  915SOL     OW 2699   2.052   0.961   1.267
  915SOL    HW1 2700   2.140   0.917   1.256
  915SOL    HW2 2701   1.981   0.907   1.222
  916SOL     OW 2702   3.380   1.004   0.204
  916SOL    HW1 2703   3.308   0.941   0.234
  916SOL    HW2 2704   3.430   1.038   0.284
  917SOL     OW 2705   3.045   1.808   1.621
  917SOL    HW1 2706   3.054   1.877   1.549
  917SOL    HW2 2707   3.065   1.717   1.583
  918SOL     OW 2708   2.191   0.250   1.811
  918SOL    HW1 2709   2.249   0.327   1.837
  918SOL    HW2 2710   2.098   0.266   1.846
  919SOL     OW 2711   3.328   1.420   0.950
  919SOL    HW1 2712   3.260   1.439   1.021
  919SOL    HW2 2713   3.319   1.325   0.920
  920SOL     OW 2714   3.526   1.729   0.574
  920SOL    HW1 2715   3.499   1.709   0.480
  920SOL    HW2 2716   3.493   1.657   0.635
  921SOL     OW 2717   2.457   0.723   0.272
  921SOL    HW1 2718   2.463   0.808   0.220
  921SOL    HW2 2719   2.388   0.732   0.344
  922SOL     OW 2720   3.140   0.354   0.932
  922SOL    HW1 2721   3.046   0.321   0.938
  922SOL    HW2 2722   3.198   0.301   0.994
  923SOL     OW 2723   3.459   1.675   0.307
  923SOL    HW1 2724   3.553   1.707   0.297
  923SOL    HW2 2725   3.420   1.655   0.217
  924SOL     OW 2726   2.653   0.613   1.451
  924SOL    HW1 2727   2.627   0.590   1.545
  924SOL    HW2 2728   2.613   0.547   1.388
  925SOL     OW 2729   3.254   0.470   1.679
  925SOL    HW1 2730   3.253   0.520   1.766
  925SOL    HW2 2731   3.322   0.397   1.683
  926SOL     OW 2732   2.816   0.887   1.582
  926SOL    HW1 2733   2.874   0.814   1.546
  926SOL    HW2 2734   2.762   0.927   1.508
  927SOL     OW 2735   2.856   0.409   1.231
  927SOL    HW1 2736   2.769   0.431   1.275
  927SOL    HW2 2737   2.840   0.362   1.144
  928SOL     OW 2738   2.913   0.698   0.426
  928SOL    HW1 2739   2.933   0.693   0.523
  928SOL    HW2 2740   2.826   0.652   0.407
  929SOL     OW 2741   1.951   0.826   0.779
  929SOL    HW1 2742   2.037   0.814   0.829
  929SOL    HW2 2743   1.902   0.905   0.815
  930SOL     OW 2744   2.750   0.355   0.201
  930SOL    HW1 2745   2.793   0.415   0.134
  930SOL    HW2 2746   2.746   0.262   0.165
  931SOL     OW 2747   3.567   0.576   1.832
  931SOL    HW1 2748   3.531   0.653   1.780
  931SOL    HW2 2749   3.600   0.505   1.769
  932SOL     OW 2750   3.242   1.144   0.538
  932SOL    HW1 2751   3.324   1.127   0.485
  932SOL    HW2 2752   3.184   1.210   0.490
  933SOL     OW 2753   2.411   0.185   0.895
  933SOL    HW1 2754   2.418   0.210   0.992
  933SOL    HW2 2755   2.416   0.268   0.839
  934SOL     OW 2756   2.859   1.444   0.467
  934SOL    HW1 2757   2.823   1.523   0.417
  934SOL    HW2 2758   2.842   1.455   0.565
  935SOL     OW 2759   2.222   1.808   0.859
  935SOL    HW1 2760   2.264   1.719   0.874
  935SOL    HW2 2761   2.287   1.880   0.884
  936SOL     OW 2762   3.675   1.080   0.872
  936SOL    HW1 2763   3.628   1.037   0.796
  936SOL    HW2 2764   3.615   1.083   0.952
  937SOL     OW 2765   3.090   1.536   1.513
  937SOL    HW1 2766   3.076   1.462   1.579
  937SOL    HW2 2767   3.022   1.528   1.440
  938SOL     OW 2768   2.186   0.954   0.243
  938SOL    HW1 2769   2.274   0.972   0.201
  938SOL    HW2 2770   2.154   0.863   0.217
  939SOL     OW 2771   3.346   0.748   0.725
  939SOL    HW1 2772   3.336   0.702   0.813
  939SOL    HW2 2773   3.426   0.808   0.727
  940SOL     OW 2774   2.967   1.778   0.214
  940SOL    HW1 2775   2.903   1.732   0.276
  940SOL    HW2 2776   3.004   1.712   0.150
  941SOL     OW 2777   2.063   0.280   1.498
  941SOL    HW1 2778   1.984   0.340   1.487
  941SOL    HW2 2779   2.051   0.224   1.580
  942SOL     OW 2780   3.507   1.375   0.087
  942SOL    HW1 2781   3.464   1.465   0.082
  942SOL    HW2 2782   3.440   1.305   0.064
  943SOL     OW 2783   2.328   1.731   0.324
  943SOL    HW1 2784   2.365   1.799   0.388
  943SOL    HW2 2785   2.400   1.700   0.263
  944SOL     OW 2786   3.267   0.101   0.430
  944SOL    HW1 2787   3.253   0.079   0.334
  944SOL    HW2 2788   3.364   0.115   0.447
  945SOL     OW 2789   2.128   1.789   1.247
  945SOL    HW1 2790   2.169   1.701   1.270
  945SOL    HW2 2791   2.060   1.776   1.175
  946SOL     OW 2792   2.798   1.701   0.897
  946SOL    HW1 2793   2.880   1.653   0.928
  946SOL    HW2 2794   2.754   1.650   0.824
  947SOL     OW 2795   2.255   0.688   0.476
  947SOL    HW1 2796   2.277   0.592   0.487
  947SOL    HW2 2797   2.158   0.703   0.494
  948SOL     OW 2798   3.400   0.226   1.728
  948SOL    HW1 2799   3.408   0.246   1.826
  948SOL    HW2 2800   3.322   0.167   1.712
  949SOL     OW 2801   2.479   0.106   0.103
  949SOL    HW1 2802   2.578   0.096   0.111
  949SOL    HW2 2803   2.450   0.074   0.013
  950SOL     OW 2804   2.630   0.274   1.760
  950SOL    HW1 2805   2.709   0.214   1.755
  950SOL    HW2 2806   2.573   0.246   1.838
  951SOL     OW 2807   2.737   1.514   1.192
  951SOL    HW1 2808   2.718   1.479   1.100
  951SOL    HW2 2809   2.811   1.460   1.233
  952SOL     OW 2810   3.203   0.588   1.434
  952SOL    HW1 2811   3.232   0.554   1.523
  952SOL    HW2 2812   3.237   0.681   1.422
  953SOL     OW 2813   2.682   1.392   0.939
  953SOL    HW1 2814   2.771   1.380   0.896
  953SOL    HW2 2815   2.611   1.396   0.869
  954SOL     OW 2816   2.789   0.508   0.898
  954SOL    HW1 2817   2.763   0.501   0.802
  954SOL    HW2 2818   2.821   0.418   0.930
  955SOL     OW 2819   2.405   0.041   0.485
  955SOL    HW1 2820   2.325   0.040   0.546
  955SOL    HW2 2821   2.404   0.125   0.431
  956SOL     OW 2822   3.294   1.201   0.031
  956SOL    HW1 2823   3.323   1.123   0.087
  956SOL    HW2 2824   3.207   1.236   0.064
  957SOL     OW 2825   2.155   0.040   0.200
  957SOL    HW1 2826   2.212   0.114   0.165
  957SOL    HW2 2827   2.213  -0.036   0.230
  958SOL     OW 2828   2.808   0.249   0.457
  958SOL    HW1 2829   2.774   0.292   0.373
  958SOL    HW2 2830   2.906   0.265   0.465
  959SOL     OW 2831   2.941   0.682   1.457
  959SOL    HW1 2832   2.865   0.618   1.462
  959SOL    HW2 2833   3.028   0.632   1.452
  960SOL     OW 2834   3.085   1.568   0.793
  960SOL    HW1 2835   3.098   1.639   0.724
  960SOL    HW2 2836   3.153   1.579   0.865
  961SOL     OW 2837   2.328   1.150   0.730
  961SOL    HW1 2838   2.259   1.131   0.799
  961SOL    HW2 2839   2.288   1.138   0.639
  962SOL     OW 2840   3.127   1.793   0.607
  962SOL    HW1 2841   3.179   1.857   0.550
  962SOL    HW2 2842   3.054   1.843   0.654
  963SOL     OW 2843   2.879   0.533   0.027
  963SOL    HW1 2844   2.849   0.621  -0.011
  963SOL    HW2 2845   2.953   0.549   0.092
  964SOL     OW 2846   1.948   0.556   1.391
  964SOL    HW1 2847   2.042   0.552   1.359
  964SOL    HW2 2848   1.939   0.629   1.460
  965SOL     OW 2849   2.421   0.230   1.171
  965SOL    HW1 2850   2.474   0.159   1.218
  965SOL    HW2 2851   2.325   0.224   1.197
  966SOL     OW 2852   2.729   0.460   0.636
  966SOL    HW1 2853   2.682   0.521   0.572
  966SOL    HW2 2854   2.753   0.375   0.589
  967SOL     OW 2855   2.851   0.026   0.768
  967SOL    HW1 2856   2.801   0.032   0.682
  967SOL    HW2 2857   2.836  -0.063   0.810
  968SOL     OW 2858   3.303   1.163   0.857
  968SOL    HW1 2859   3.230   1.095   0.868
  968SOL    HW2 2860   3.325   1.173   0.760
  969SOL     OW 2861   3.329   0.611   0.980
  969SOL    HW1 2862   3.274   0.528   0.974
  969SOL    HW2 2863   3.397   0.601   1.053
  970SOL     OW 2864   3.747   0.822   0.379
  970SOL    HW1 2865   3.810   0.768   0.433
  970SOL    HW2 2866   3.696   0.762   0.316
  971SOL     OW 2867   2.349   1.416   0.154
  971SOL    HW1 2868   2.275   1.387   0.214
  971SOL    HW2 2869   2.332   1.382   0.061
  972SOL     OW 2870   3.543   1.272   0.641
  972SOL    HW1 2871   3.633   1.267   0.685
  972SOL    HW2 2872   3.501   1.360   0.663
  973SOL     OW 2873   3.250   0.576   0.075
  973SOL    HW1 2874   3.187   0.556   0.150
  973SOL    HW2 2875   3.326   0.511   0.077
  974SOL     OW 2876   2.389   0.260   0.313
  974SOL    HW1 2877   2.429   0.203   0.242
  974SOL    HW2 2878   2.366   0.350   0.275
  975SOL     OW 2879   3.617   1.237   1.561
  975SOL    HW1 2880   3.703   1.189   1.580
  975SOL    HW2 2881   3.627   1.333   1.586
  976SOL     OW 2882   2.917   1.350   1.336
  976SOL    HW1 2883   2.836   1.321   1.387
  976SOL    HW2 2884   2.999   1.311   1.377
  977SOL     OW 2885   3.475   1.625   1.655
  977SOL    HW1 2886   3.459   1.664   1.564
  977SOL    HW2 2887   3.562   1.575   1.654
  978SOL     OW 2888   2.997   1.216   1.105
  978SOL    HW1 2889   2.937   1.250   1.177
  978SOL    HW2 2890   2.962   1.245   1.016
  979SOL     OW 2891   3.493   1.099   1.082
  979SOL    HW1 2892   3.493   1.167   1.155
  979SOL    HW2 2893   3.415   1.115   1.021
  980SOL     OW 2894   2.771   0.105   1.390
  980SOL    HW1 2895   2.795   0.073   1.299
  980SOL    HW2 2896   2.852   0.144   1.435
  981SOL     OW 2897   2.843   1.115   1.722
  981SOL    HW1 2898   2.749   1.135   1.750
  981SOL    HW2 2899   2.844   1.033   1.665
  982SOL     OW 2900   2.577   1.061   0.374
  982SOL    HW1 2901   2.557   1.044   0.471
  982SOL    HW2 2902   2.657   1.008   0.347
  983SOL     OW 2903   2.283   0.814   1.254
  983SOL    HW1 2904   2.356   0.828   1.321
  983SOL    HW2 2905   2.244   0.722   1.265
  984SOL     OW 2906   3.125   0.376   1.279
  984SOL    HW1 2907   3.163   0.455   1.327
  984SOL    HW2 2908   3.030   0.394   1.253
  985SOL     OW 2909   2.209   1.116   0.483
  985SOL    HW1 2910   2.208   1.197   0.424
  985SOL    HW2 2911   2.209   1.034   0.427
  986SOL     OW 2912   2.411   0.544   0.862
  986SOL    HW1 2913   2.426   0.603   0.783
  986SOL    HW2 2914   2.481   0.564   0.932
  987SOL     OW 2915   3.108   1.352   0.396
  987SOL    HW1 2916   3.169   1.426   0.425
  987SOL    HW2 2917   3.014   1.373   0.425
  988SOL     OW 2918   3.147   1.460   1.147
  988SOL    HW1 2919   3.206   1.465   1.227
  988SOL    HW2 2920   3.091   1.377   1.151
  989SOL     OW 2921   3.442   0.621   0.482
  989SOL    HW1 2922   3.391   0.672   0.552
  989SOL    HW2 2923   3.473   0.685   0.411
  990SOL     OW 2924   2.221   1.530   1.318
  990SOL    HW1 2925   2.194   1.491   1.230
  990SOL    HW2 2926   2.320   1.544   1.318
  991SOL     OW 2927   2.277   0.743   1.600
  991SOL    HW1 2928   2.341   0.791   1.541
  991SOL    HW2 2929   2.316   0.653   1.625
  992SOL     OW 2930   3.470   0.783   1.684
  992SOL    HW1 2931   3.379   0.824   1.683
  992SOL    HW2 2932   3.527   0.827   1.613
  993SOL     OW 2933   2.866   0.111   1.756
  993SOL    HW1 2934   2.917   0.194   1.734
  993SOL    HW2 2935   2.902   0.034   1.704
  994SOL     OW 2936   2.351   0.037   1.755
  994SOL    HW1 2937   2.315  -0.025   1.684
  994SOL    HW2 2938   2.290   0.115   1.764
  995SOL     OW 2939   2.445   0.872   1.034
  995SOL    HW1 2940   2.481   0.965   1.030
  995SOL    HW2 2941   2.385   0.862   1.113
  996SOL     OW 2942   3.215   0.859   1.026
  996SOL    HW1 2943   3.125   0.851   0.984
  996SOL    HW2 2944   3.263   0.771   1.020
  997SOL     OW 2945   3.062   0.525   0.269
  997SOL    HW1 2946   3.074   0.443   0.324
  997SOL    HW2 2947   3.016   0.595   0.323
  998SOL     OW 2948   2.159   0.188   1.245
  998SOL    HW1 2949   2.124   0.229   1.329
  998SOL    HW2 2950   2.143   0.090   1.247
  999SOL     OW 2951   1.894   1.321   1.290
  999SOL    HW1 2952   1.942   1.262   1.355
  999SOL    HW2 2953   1.930   1.414   1.298
 1000SOL     OW 2954   2.588   0.633   1.056
 1000SOL    HW1 2955   2.664   0.612   0.994
 1000SOL    HW2 2956   2.553   0.724   1.035
 1001SOL     OW 2957   3.593   0.964   1.860
 1001SOL    HW1 2958   3.558   0.897   1.795
 1001SOL    HW2 2959   3.528   0.976   1.934
 1002SOL     OW 2960   2.173   0.044   0.637
 1002SOL    HW1 2961   2.155   0.140   0.658
 1002SOL    HW2 2962   2.162  -0.011   0.719
 1003SOL     OW 2963   3.487   0.379   0.360
 1003SOL    HW1 2964   3.508   0.303   0.421
 1003SOL    HW2 2965   3.459   0.459   0.414
 1004SOL     OW 2966   2.886   0.756   0.959
 1004SOL    HW1 2967   2.882   0.777   1.057
 1004SOL    HW2 2968   2.859   0.660   0.945
 1005SOL     OW 2969   2.842   1.561   1.715
 1005SOL    HW1 2970   2.827   1.610   1.629
 1005SOL    HW2 2971   2.893   1.477   1.697
 1006SOL     OW 2972   3.724   1.506   1.596
 1006SOL    HW1 2973   3.765   1.528   1.507
 1006SOL    HW2 2974   3.792   1.523   1.668
 1007SOL     OW 2975   2.218   0.923   1.801
 1007SOL    HW1 2976   2.297   0.939   1.861
 1007SOL    HW2 2977   2.242   0.855   1.732
 1008SOL     OW 2978   3.388   0.277   0.118
 1008SOL    HW1 2979   3.318   0.209   0.141
 1008SOL    HW2 2980   3.426   0.314   0.203
 1009SOL     OW 2981   3.155   0.826   3.860
 1009SOL    HW1 2982   3.195   0.735   3.875
 1009SOL    HW2 2983   3.192   0.865   3.776
 1010SOL     OW 2984   2.931   1.337   0.854
 1010SOL    HW1 2985   2.934   1.258   0.791
 1010SOL    HW2 2986   2.992   1.409   0.819
 1011SOL     OW 2987   2.173   0.807   0.943
 1011SOL    HW1 2988   2.270   0.833   0.938
 1011SOL    HW2 2989   2.166   0.713   0.976
 1012SOL     OW 2990   2.190   0.526   1.011
 1012SOL    HW1 2991   2.150   0.435   0.999
 1012SOL    HW2 2992   2.271   0.535   0.953
 1013SOL     OW 2993   2.996   0.370   1.695
 1013SOL    HW1 2994   2.943   0.429   1.756
 1013SOL    HW2 2995   3.088   0.408   1.684
 1014SOL     OW 2996   3.012   0.210   1.475
 1014SOL    HW1 2997   3.003   0.273   1.552
 1014SOL    HW2 2998   3.058   0.257   1.399
 1015SOL     OW 2999   1.876   1.320   0.177
 1015SOL    HW1 3000   1.784   1.340   0.145
 1015SOL    HW2 3001   1.877   1.230   0.222
 1016SOL     OW 3002   1.959   1.793   0.938
 1016SOL    HW1 3003   1.918   1.707   0.907
 1016SOL    HW2 3004   2.053   1.799   0.905
 1017SOL     OW 3005   2.359   1.572   0.911
 1017SOL    HW1 3006   2.428   1.641   0.935
 1017SOL    HW2 3007   2.399   1.506   0.847
 1018SOL     OW 3008   2.840   0.794   1.226
 1018SOL    HW1 3009   2.899   0.770   1.302
 1018SOL    HW2 3010   2.750   0.752   1.237
 1019SOL     OW 3011   1.898   0.550   1.117
 1019SOL    HW1 3012   1.980   0.534   1.062
 1019SOL    HW2 3013   1.924   0.553   1.214
 1020SOL     OW 3014   2.052   0.523   1.730
 1020SOL    HW1 3015   2.116   0.477   1.667
 1020SOL    HW2 3016   2.011   0.601   1.684
 1021SOL     OW 3017   3.242   0.936   1.656
 1021SOL    HW1 3018   3.264   1.033   1.658
 1021SOL    HW2 3019   3.239   0.904   1.562
 1022SOL     OW 3020   2.679   0.575   0.361
 1022SOL    HW1 3021   2.690   0.495   0.302
 1022SOL    HW2 3022   2.601   0.629   0.330
 1023SOL     OW 3023   3.527   0.599   1.178
 1023SOL    HW1 3024   3.505   0.541   1.256
 1023SOL    HW2 3025   3.619   0.579   1.146
 1024SOL     OW 3026   2.566   0.452   1.255
 1024SOL    HW1 3027   2.510   0.374   1.229
 1024SOL    HW2 3028   2.565   0.520   1.181
 1025SOL     OW 3029   2.785   1.680   1.469
 1025SOL    HW1 3030   2.759   1.637   1.382
 1025SOL    HW2 3031   2.784   1.779   1.458
 1026SOL     OW 3032   2.325   0.495   0.193
 1026SOL    HW1 3033   2.388   0.570   0.215
 1026SOL    HW2 3034   2.234   0.533   0.173
 1027SOL     OW 3035   2.023   1.143   1.462
 1027SOL    HW1 3036   2.012   1.099   1.551
 1027SOL    HW2 3037   2.036   1.073   1.392
 1028SOL     OW 3038   3.180   1.046   1.220
 1028SOL    HW1 3039   3.209   0.978   1.153
 1028SOL    HW2 3040   3.111   1.106   1.180
 1029SOL     OW 3041   3.171   0.853   0.300
 1029SOL    HW1 3042   3.095   0.825   0.358
 1029SOL    HW2 3043   3.147   0.839   0.204
 1030SOL     OW 3044   3.620   1.742   1.143
 1030SOL    HW1 3045   3.687   1.780   1.080
 1030SOL    HW2 3046   3.607   1.645   1.123
 1031SOL     OW 3047   3.104   1.732   1.107
 1031SOL    HW1 3048   3.190   1.760   1.064
 1031SOL    HW2 3049   3.108   1.635   1.130
 1032SOL     OW 3050   1.936   1.270   1.016
 1032SOL    HW1 3051   1.917   1.281   1.113
 1032SOL    HW2 3052   1.871   1.206   0.976
 1033SOL     OW 3053   2.535   1.658   1.721
 1033SOL    HW1 3054   2.479   1.740   1.734
 1033SOL    HW2 3055   2.610   1.678   1.658
 1034SOL     OW 3056   2.760   0.088   0.113
 1034SOL    HW1 3057   2.807   0.081   0.025
 1034SOL    HW2 3058   2.806   0.030   0.180
 1035SOL     OW 3059   3.558   0.129   0.487
 1035SOL    HW1 3060   3.648   0.119   0.444
 1035SOL    HW2 3061   3.549   0.063   0.561
 1036SOL     OW 3062   3.256   1.572   0.483
 1036SOL    HW1 3063   3.322   1.604   0.415
 1036SOL    HW2 3064   3.203   1.650   0.517
 1037SOL     OW 3065   3.143   0.926   0.666
 1037SOL    HW1 3066   3.218   0.862   0.681
 1037SOL    HW2 3067   3.177   1.004   0.613
 1038SOL     OW 3068   2.670   1.277   1.430
 1038SOL    HW1 3069   2.639   1.312   1.518
 1038SOL    HW2 3070   2.600   1.292   1.361
 1039SOL     OW 3071   2.533   1.612   0.166
 1039SOL    HW1 3072   2.543   1.640   0.071
 1039SOL    HW2 3073   2.475   1.531   0.171
 1040SOL     OW 3074   3.483   1.727   1.388
 1040SOL    HW1 3075   3.536   1.729   1.303
 1040SOL    HW2 3076   3.469   1.820   1.421
 1041SOL     OW 3077   3.720   0.156   0.966
 1041SOL    HW1 3078   3.751   0.073   0.919
 1041SOL    HW2 3079   3.629   0.181   0.934
 1042SOL     OW 3080   2.120   0.305   0.716
 1042SOL    HW1 3081   2.034   0.347   0.688
 1042SOL    HW2 3082   2.124   0.301   0.816
 1043SOL     OW 3083   3.070   1.602   0.025
 1043SOL    HW1 3084   3.061   1.507   0.057
 1043SOL    HW2 3085   3.017   1.614  -0.058
 1044SOL     OW 3086   2.685   1.009   1.376
 1044SOL    HW1 3087   2.735   0.993   1.291
 1044SOL    HW2 3088   2.684   1.107   1.397
 1045SOL     OW 3089   2.786   0.916   0.293
 1045SOL    HW1 3090   2.841   0.942   0.213
 1045SOL    HW2 3091   2.831   0.841   0.340
 1046SOL     OW 3092   3.353   1.624   0.044
 1046SOL    HW1 3093   3.254   1.612   0.039
 1046SOL    HW2 3094   3.391   1.631  -0.049
 1047SOL     OW 3095   2.277   1.286   1.443
 1047SOL    HW1 3096   2.249   1.370   1.396
 1047SOL    HW2 3097   2.199   1.225   1.452
 1048SOL     OW 3098   3.497   1.293   1.288
 1048SOL    HW1 3099   3.545   1.265   1.372
 1048SOL    HW2 3100   3.425   1.358   1.312
 1049SOL     OW 3101   2.920   1.106   0.713
 1049SOL    HW1 3102   2.844   1.056   0.753
 1049SOL    HW2 3103   2.987   1.041   0.677
 1050SOL     OW 3104   2.882   0.237   0.966
 1050SOL    HW1 3105   2.870   0.190   0.879
 1050SOL    HW2 3106   2.879   0.171   1.041
 1051SOL     OW 3107   2.467   1.486   0.480
 1051SOL    HW1 3108   2.514   1.433   0.410
 1051SOL    HW2 3109   2.395   1.541   0.437
 1052SOL     OW 3110   3.604   0.399   1.383
 1052SOL    HW1 3111   3.680   0.464   1.380
 1052SOL    HW2 3112   3.624   0.322   1.323
 1053SOL     OW 3113   2.128   1.339   0.295
 1053SOL    HW1 3114   2.039   1.339   0.248
 1053SOL    HW2 3115   2.119   1.381   0.385
 1054SOL     OW 3116   1.968   1.006   1.702
 1054SOL    HW1 3117   1.891   1.001   1.765
 1054SOL    HW2 3118   2.053   0.986   1.752
 1055SOL     OW 3119   2.534   0.208   1.500
 1055SOL    HW1 3120   2.616   0.174   1.454
 1055SOL    HW2 3121   2.556   0.234   1.594
 1056SOL     OW 3122   1.946   0.342   3.826
 1056SOL    HW1 3123   1.848   0.327   3.841
 1056SOL    HW2 3124   1.959   0.422   3.768
 1057SOL     OW 3125   3.285   0.857   1.397
 1057SOL    HW1 3126   3.230   0.921   1.343
 1057SOL    HW2 3127   3.379   0.857   1.363
 1058SOL     OW 3128   1.926   0.147   0.313
 1058SOL    HW1 3129   1.918   0.235   0.266
 1058SOL    HW2 3130   2.010   0.102   0.285
 1059SOL     OW 3131   3.047   1.344   0.121
 1059SOL    HW1 3132   2.951   1.316   0.108
 1059SOL    HW2 3133   3.070   1.338   0.218
 1060SOL     OW 3134   2.484   0.830   1.433
 1060SOL    HW1 3135   2.541   0.911   1.418
 1060SOL    HW2 3136   2.543   0.750   1.443
 1061SOL     OW 3137   3.350   1.783   0.987
 1061SOL    HW1 3138   3.370   1.845   0.911
 1061SOL    HW2 3139   3.435   1.761   1.035
 1062SOL     OW 3140   2.583   0.559   1.704
 1062SOL    HW1 3141   2.626   0.628   1.763
 1062SOL    HW2 3142   2.606   0.467   1.738
 1063SOL     OW 3143   3.334   1.198   1.636
 1063SOL    HW1 3144   3.319   1.212   1.734
 1063SOL    HW2 3145   3.430   1.214   1.615
 1064SOL     OW 3146   2.250   1.750   1.560
 1064SOL    HW1 3147   2.174   1.766   1.497
 1064SOL    HW2 3148   2.246   1.656   1.593
 1065SOL     OW 3149   3.524   0.878   1.255
 1065SOL    HW1 3150   3.528   0.787   1.212
 1065SOL    HW2 3151   3.518   0.948   1.185
 1066SOL     OW 3152   3.083   0.314   0.460
 1066SOL    HW1 3153   3.146   0.236   0.453
 1066SOL    HW2 3154   3.108   0.370   0.539
 1067SOL     OW 3155   2.448   0.738   0.668
 1067SOL    HW1 3156   2.490   0.828   0.657
 1067SOL    HW2 3157   2.379   0.724   0.598
 1068SOL     OW 3158   3.627   0.367   1.658
 1068SOL    HW1 3159   3.618   0.380   1.559
 1068SOL    HW2 3160   3.553   0.307   1.690
 1069SOL     OW 3161   3.603   0.940   1.508
 1069SOL    HW1 3162   3.593   1.038   1.524
 1069SOL    HW2 3163   3.588   0.919   1.412
 1070SOL     OW 3164   2.741   1.362   0.029
 1070SOL    HW1 3165   2.690   1.370   0.115
 1070SOL    HW2 3166   2.736   1.449  -0.021
 1071SOL     OW 3167   2.526   1.787   0.944
 1071SOL    HW1 3168   2.501   1.881   0.921
 1071SOL    HW2 3169   2.625   1.775   0.932
 1072SOL     OW 3170   2.731   0.968   0.856
 1072SOL    HW1 3171   2.782   0.891   0.893
 1072SOL    HW2 3172   2.690   1.021   0.931
 1073SOL     OW 3173   2.933   0.980   0.071
 1073SOL    HW1 3174   2.916   1.042  -0.006
 1073SOL    HW2 3175   3.015   0.926   0.053
 1074SOL     OW 3176   3.735   1.584   0.867
 1074SOL    HW1 3177   3.672   1.578   0.789
 1074SOL    HW2 3178   3.706   1.521   0.938
 1075SOL     OW 3179   1.947   1.232   0.667
 1075SOL    HW1 3180   1.952   1.179   0.751
 1075SOL    HW2 3181   2.015   1.197   0.602
 1076SOL     OW 3182   2.520   1.386   1.634
 1076SOL    HW1 3183   2.432   1.374   1.589
 1076SOL    HW2 3184   2.526   1.479   1.670
 1077SOL     OW 3185   3.665   0.185   1.233
 1077SOL    HW1 3186   3.683   0.094   1.270
 1077SOL    HW2 3187   3.688   0.187   1.136
 1078SOL     OW 3188   2.291   0.427   0.526
 1078SOL    HW1 3189   2.328   0.358   0.463
 1078SOL    HW2 3190   2.240   0.381   0.599
 1079SOL     OW 3191   3.565   1.482   1.086
 1079SOL    HW1 3192   3.481   1.466   1.034
 1079SOL    HW2 3193   3.570   1.416   1.161
 1080SOL     OW 3194   2.195   0.554   1.289
 1080SOL    HW1 3195   2.254   0.499   1.348
 1080SOL    HW2 3196   2.212   0.529   1.193
 1081SOL     OW 3197   2.690   1.579   0.679
 1081SOL    HW1 3198   2.677   1.640   0.600
 1081SOL    HW2 3199   2.613   1.516   0.686
 1082SOL     OW 3200   3.290   0.225   1.118
 1082SOL    HW1 3201   3.330   0.146   1.165
 1082SOL    HW2 3202   3.235   0.278   1.182
 1083SOL     OW 3203   2.871   3.852   1.143
 1083SOL    HW1 3204   2.809   3.784   1.102
 1083SOL    HW2 3205   2.963   3.813   1.150
 1084SOL     OW 3206   2.639   1.329   0.313
 1084SOL    HW1 3207   2.607   1.235   0.326
 1084SOL    HW2 3208   2.722   1.344   0.366
 1085SOL     OW 3209   2.490   1.560   1.294
 1085SOL    HW1 3210   2.490   1.650   1.338
 1085SOL    HW2 3211   2.578   1.544   1.249
 1086SOL     OW 3212   3.210   0.040   0.167
 1086SOL    HW1 3213   3.256  -0.012   0.095
 1086SOL    HW2 3214   3.122  -0.003   0.189
 1087SOL     OW 3215   3.153   0.465   0.680
 1087SOL    HW1 3216   3.099   0.548   0.683
 1087SOL    HW2 3217   3.152   0.421   0.770
 1088SOL     OW 3218   3.468   0.214   0.888
 1088SOL    HW1 3219   3.395   0.218   0.957
 1088SOL    HW2 3220   3.460   0.292   0.826
 1089SOL     OW 3221   1.905   1.068   0.305
 1089SOL    HW1 3222   2.003   1.068   0.285
 1089SOL    HW2 3223   1.876   0.975   0.329
 1090SOL     OW 3224   2.746   1.661   0.345
 1090SOL    HW1 3225   2.671   1.636   0.283
 1090SOL    HW2 3226   2.718   1.738   0.401
 1091SOL     OW 3227   2.086   0.621   1.987
 1091SOL    HW1 3228   1.995   0.622   2.029
 1091SOL    HW2 3229   2.078   0.597   1.891
 1092SOL     OW 3230   2.079   0.283   2.857
 1092SOL    HW1 3231   2.115   0.248   2.943
 1092SOL    HW2 3232   1.990   0.240   2.839
 1093SOL     OW 3233   1.866   0.388   2.496
 1093SOL    HW1 3234   1.780   0.415   2.539
 1093SOL    HW2 3235   1.852   0.307   2.439
 1094SOL     OW 3236   2.429   1.294   3.044
 1094SOL    HW1 3237   2.339   1.291   3.001
 1094SOL    HW2 3238   2.448   1.386   3.078
 1095SOL     OW 3239   3.419   1.511   2.567
 1095SOL    HW1 3240   3.378   1.489   2.656
 1095SOL    HW2 3241   3.346   1.519   2.499
 1096SOL     OW 3242   2.994   0.702   2.559
 1096SOL    HW1 3243   3.046   0.786   2.542
 1096SOL    HW2 3244   2.944   0.711   2.645
 1097SOL     OW 3245   3.614   0.616   2.100
 1097SOL    HW1 3246   3.604   0.610   2.000
 1097SOL    HW2 3247   3.587   0.529   2.141
 1098SOL     OW 3248   2.609   1.142   2.902
 1098SOL    HW1 3249   2.540   1.176   2.965
 1098SOL    HW2 3250   2.652   1.219   2.855
 1099SOL     OW 3251   2.721   0.778   3.684
 1099SOL    HW1 3252   2.700   0.853   3.747
 1099SOL    HW2 3253   2.755   0.816   3.598
 1100SOL     OW 3254   2.546   1.000   2.511
 1100SOL    HW1 3255   2.617   0.989   2.581
 1100SOL    HW2 3256   2.471   1.055   2.548
 1101SOL     OW 3257   2.576   1.153   3.692
 1101SOL    HW1 3258   2.620   1.236   3.727
 1101SOL    HW2 3259   2.490   1.177   3.648
 1102SOL     OW 3260   2.189   1.423   2.929
 1102SOL    HW1 3261   2.112   1.382   2.880
 1102SOL    HW2 3262   2.245   1.475   2.864
 1103SOL     OW 3263   3.323   1.499   3.218
 1103SOL    HW1 3264   3.378   1.582   3.225
 1103SOL    HW2 3265   3.251   1.500   3.288
 1104SOL     OW 3266   2.314   0.395   3.344
 1104SOL    HW1 3267   2.394   0.336   3.348
 1104SOL    HW2 3268   2.231   0.340   3.358
 1105SOL     OW 3269   3.460   0.442   2.603
 1105SOL    HW1 3270   3.382   0.464   2.544
 1105SOL    HW2 3271   3.498   0.527   2.641
 1106SOL     OW 3272   2.993   1.342   3.562
 1106SOL    HW1 3273   3.052   1.334   3.642
 1106SOL    HW2 3274   2.935   1.262   3.555
 1107SOL     OW 3275   2.127   1.091   2.760
 1107SOL    HW1 3276   2.123   0.997   2.794
 1107SOL    HW2 3277   2.066   1.148   2.813
 1108SOL     OW 3278   2.463   1.799   3.284
 1108SOL    HW1 3279   2.382   1.773   3.338
 1108SOL    HW2 3280   2.495   1.889   3.314
 1109SOL     OW 3281   2.446   0.986   2.000
 1109SOL    HW1 3282   2.490   1.037   1.927
 1109SOL    HW2 3283   2.485   1.013   2.088
 1110SOL     OW 3284   3.455   0.110   3.333
 1110SOL    HW1 3285   3.470   0.187   3.271
 1110SOL    HW2 3286   3.454   0.143   3.427
 1111SOL     OW 3287   1.976   0.659   2.426
 1111SOL    HW1 3288   1.948   0.564   2.443
 1111SOL    HW2 3289   1.970   0.712   2.510
 1112SOL     OW 3290   3.732   1.768   2.190
 1112SOL    HW1 3291   3.751   1.736   2.282
 1112SOL    HW2 3292   3.785   1.851   2.171
 1113SOL     OW 3293   3.562   0.921   2.508
 1113SOL    HW1 3294   3.644   0.874   2.475
 1113SOL    HW2 3295   3.525   0.979   2.435
 1114SOL     OW 3296   3.508   1.106   2.297
 1114SOL    HW1 3297   3.591   1.107   2.243
 1114SOL    HW2 3298   3.514   1.174   2.370
 1115SOL     OW 3299   1.984   0.738   3.453
 1115SOL    HW1 3300   2.081   0.762   3.456
 1115SOL    HW2 3301   1.929   0.822   3.452
 1116SOL     OW 3302   2.476   1.386   2.595
 1116SOL    HW1 3303   2.429   1.298   2.609
 1116SOL    HW2 3304   2.463   1.415   2.500
 1117SOL     OW 3305   3.153   1.236   3.287
 1117SOL    HW1 3306   3.180   1.165   3.222
 1117SOL    HW2 3307   3.208   1.229   3.369
 1118SOL     OW 3308   2.683   0.004   2.385
 1118SOL    HW1 3309   2.725   0.090   2.354
 1118SOL    HW2 3310   2.583   0.013   2.380
 1119SOL     OW 3311   2.053   0.963   3.136
 1119SOL    HW1 3312   2.141   0.919   3.122
 1119SOL    HW2 3313   1.983   0.915   3.084
 1120SOL     OW 3314   3.392   0.997   2.066
 1120SOL    HW1 3315   3.317   0.935   2.092
 1120SOL    HW2 3316   3.434   1.035   2.148
 1121SOL     OW 3317   3.047   1.812   3.486
 1121SOL    HW1 3318   3.055   1.877   3.410
 1121SOL    HW2 3319   3.062   1.719   3.452
 1122SOL     OW 3320   2.177   0.253   3.661
 1122SOL    HW1 3321   2.238   0.331   3.673
 1122SOL    HW2 3322   2.095   0.265   3.718
 1123SOL     OW 3323   3.328   1.420   2.812
 1123SOL    HW1 3324   3.260   1.439   2.883
 1123SOL    HW2 3325   3.319   1.325   2.782
 1124SOL     OW 3326   3.529   1.728   2.433
 1124SOL    HW1 3327   3.499   1.709   2.340
 1124SOL    HW2 3328   3.495   1.657   2.495
 1125SOL     OW 3329   2.457   0.720   2.132
 1125SOL    HW1 3330   2.463   0.805   2.080
 1125SOL    HW2 3331   2.388   0.730   2.204
 1126SOL     OW 3332   3.140   0.354   2.794
 1126SOL    HW1 3333   3.046   0.321   2.800
 1126SOL    HW2 3334   3.198   0.301   2.856
 1127SOL     OW 3335   3.457   1.674   2.167
 1127SOL    HW1 3336   3.551   1.705   2.156
 1127SOL    HW2 3337   3.417   1.655   2.078
 1128SOL     OW 3338   2.655   0.612   3.314
 1128SOL    HW1 3339   2.628   0.590   3.407
 1128SOL    HW2 3340   2.614   0.546   3.251
 1129SOL     OW 3341   3.256   0.475   3.549
 1129SOL    HW1 3342   3.273   0.538   3.625
 1129SOL    HW2 3343   3.322   0.399   3.553
 1130SOL     OW 3344   2.817   0.886   3.447
 1130SOL    HW1 3345   2.875   0.814   3.410
 1130SOL    HW2 3346   2.764   0.929   3.374
 1131SOL     OW 3347   2.856   0.409   3.093
 1131SOL    HW1 3348   2.769   0.431   3.136
 1131SOL    HW2 3349   2.840   0.362   3.007
 1132SOL     OW 3350   2.912   0.698   2.287
 1132SOL    HW1 3351   2.933   0.693   2.385
 1132SOL    HW2 3352   2.826   0.651   2.269
 1133SOL     OW 3353   1.950   0.826   2.641
 1133SOL    HW1 3354   2.036   0.815   2.692
 1133SOL    HW2 3355   1.901   0.905   2.677
 1134SOL     OW 3356   1.988   1.856   3.463
 1134SOL    HW1 3357   1.985   1.822   3.557
 1134SOL    HW2 3358   1.903   1.834   3.416
 1135SOL     OW 3359   2.752   0.349   2.064
 1135SOL    HW1 3360   2.796   0.408   1.995
 1135SOL    HW2 3361   2.742   0.257   2.027
 1136SOL     OW 3362   3.571   0.571   3.700
 1136SOL    HW1 3363   3.535   0.651   3.652
 1136SOL    HW2 3364   3.605   0.504   3.634
 1137SOL     OW 3365   3.241   1.145   2.400
 1137SOL    HW1 3366   3.324   1.128   2.348
 1137SOL    HW2 3367   3.184   1.210   2.352
 1138SOL     OW 3368   2.411   0.185   2.757
 1138SOL    HW1 3369   2.417   0.210   2.854
 1138SOL    HW2 3370   2.416   0.268   2.701
 1139SOL     OW 3371   2.860   1.442   2.328
 1139SOL    HW1 3372   2.825   1.521   2.276
 1139SOL    HW2 3373   2.845   1.457   2.426
 1140SOL     OW 3374   2.213   1.790   2.740
 1140SOL    HW1 3375   2.262   1.702   2.743
 1140SOL    HW2 3376   2.279   1.864   2.731
 1141SOL     OW 3377   3.675   1.081   2.734
 1141SOL    HW1 3378   3.628   1.037   2.657
 1141SOL    HW2 3379   3.614   1.083   2.813
 1142SOL     OW 3380   3.088   1.536   3.374
 1142SOL    HW1 3381   3.069   1.464   3.442
 1142SOL    HW2 3382   3.019   1.533   3.303
 1143SOL     OW 3383   2.183   0.951   2.114
 1143SOL    HW1 3384   2.270   0.977   2.071
 1143SOL    HW2 3385   2.149   0.867   2.073
 1144SOL     OW 3386   3.345   0.750   2.588
 1144SOL    HW1 3387   3.335   0.703   2.675
 1144SOL    HW2 3388   3.426   0.808   2.590
 1145SOL     OW 3389   2.328   1.257   3.596
 1145SOL    HW1 3390   2.298   1.266   3.501
 1145SOL    HW2 3391   2.250   1.266   3.658
 1146SOL     OW 3392   2.985   1.773   2.092
 1146SOL    HW1 3393   2.905   1.737   2.139
 1146SOL    HW2 3394   3.012   1.711   2.019
 1147SOL     OW 3395   2.063   0.281   3.360
 1147SOL    HW1 3396   1.984   0.342   3.351
 1147SOL    HW2 3397   2.056   0.229   3.445
 1148SOL     OW 3398   3.509   1.379   1.948
 1148SOL    HW1 3399   3.466   1.469   1.938
 1148SOL    HW2 3400   3.440   1.308   1.933
 1149SOL     OW 3401   3.267   0.099   2.293
 1149SOL    HW1 3402   3.253   0.076   2.197
 1149SOL    HW2 3403   3.364   0.115   2.310
 1150SOL     OW 3404   2.116   1.790   3.089
 1150SOL    HW1 3405   2.170   1.720   3.136
 1150SOL    HW2 3406   2.108   1.765   2.993
 1151SOL     OW 3407   2.798   1.700   2.761
 1151SOL    HW1 3408   2.881   1.653   2.790
 1151SOL    HW2 3409   2.755   1.650   2.686
 1152SOL     OW 3410   2.257   0.688   2.339
 1152SOL    HW1 3411   2.277   0.591   2.351
 1152SOL    HW2 3412   2.159   0.703   2.356
 1153SOL     OW 3413   3.400   0.229   3.608
 1153SOL    HW1 3414   3.413   0.247   3.706
 1153SOL    HW2 3415   3.326   0.162   3.596
 1154SOL     OW 3416   2.506   0.118   1.966
 1154SOL    HW1 3417   2.587   0.062   1.985
 1154SOL    HW2 3418   2.454   0.077   1.891
 1155SOL     OW 3419   2.632   0.279   3.619
 1155SOL    HW1 3420   2.711   0.218   3.624
 1155SOL    HW2 3421   2.570   0.259   3.696
 1156SOL     OW 3422   2.737   1.514   3.054
 1156SOL    HW1 3423   2.718   1.480   2.963
 1156SOL    HW2 3424   2.810   1.460   3.096
 1157SOL     OW 3425   3.203   0.588   3.297
 1157SOL    HW1 3426   3.233   0.555   3.387
 1157SOL    HW2 3427   3.236   0.681   3.284
 1158SOL     OW 3428   2.682   1.390   2.801
 1158SOL    HW1 3429   2.772   1.379   2.759
 1158SOL    HW2 3430   2.612   1.395   2.730
 1159SOL     OW 3431   2.789   0.507   2.760
 1159SOL    HW1 3432   2.763   0.501   2.664
 1159SOL    HW2 3433   2.821   0.418   2.792
 1160SOL     OW 3434   2.404   0.040   2.345
 1160SOL    HW1 3435   2.325   0.040   2.407
 1160SOL    HW2 3436   2.404   0.125   2.291
 1161SOL     OW 3437   3.293   1.202   1.907
 1161SOL    HW1 3438   3.324   1.122   1.959
 1161SOL    HW2 3439   3.204   1.232   1.942
 1162SOL     OW 3440   2.146   0.021   2.048
 1162SOL    HW1 3441   2.191   0.096   2.000
 1162SOL    HW2 3442   2.214  -0.036   2.093
 1163SOL     OW 3443   2.808   0.250   2.322
 1163SOL    HW1 3444   2.775   0.288   2.236
 1163SOL    HW2 3445   2.907   0.264   2.329
 1164SOL     OW 3446   2.941   0.682   3.319
 1164SOL    HW1 3447   2.864   0.619   3.321
 1164SOL    HW2 3448   3.026   0.630   3.312
 1165SOL     OW 3449   3.084   1.568   2.655
 1165SOL    HW1 3450   3.097   1.639   2.586
 1165SOL    HW2 3451   3.153   1.579   2.727
 1166SOL     OW 3452   2.330   1.151   2.591
 1166SOL    HW1 3453   2.261   1.130   2.660
 1166SOL    HW2 3454   2.290   1.137   2.500
 1167SOL     OW 3455   3.127   1.793   2.471
 1167SOL    HW1 3456   3.178   1.855   2.412
 1167SOL    HW2 3457   3.053   1.842   2.516
 1168SOL     OW 3458   2.883   0.537   1.889
 1168SOL    HW1 3459   2.837   0.622   1.866
 1168SOL    HW2 3460   2.951   0.554   1.960
 1169SOL     OW 3461   1.947   0.555   3.254
 1169SOL    HW1 3462   2.042   0.552   3.221
 1169SOL    HW2 3463   1.939   0.623   3.327
 1170SOL     OW 3464   2.421   0.230   3.033
 1170SOL    HW1 3465   2.473   0.159   3.080
 1170SOL    HW2 3466   2.325   0.224   3.059
 1171SOL     OW 3467   2.729   0.460   2.499
 1171SOL    HW1 3468   2.681   0.520   2.435
 1171SOL    HW2 3469   2.754   0.375   2.451
 1172SOL     OW 3470   2.851   0.026   2.629
 1172SOL    HW1 3471   2.799   0.031   2.544
 1172SOL    HW2 3472   2.836  -0.063   2.672
 1173SOL     OW 3473   3.303   1.163   2.720
 1173SOL    HW1 3474   3.230   1.096   2.730
 1173SOL    HW2 3475   3.325   1.173   2.623
 1174SOL     OW 3476   3.329   0.611   2.842
 1174SOL    HW1 3477   3.274   0.528   2.835
 1174SOL    HW2 3478   3.397   0.601   2.915
 1175SOL     OW 3479   3.746   0.825   2.242
 1175SOL    HW1 3480   3.810   0.770   2.295
 1175SOL    HW2 3481   3.695   0.766   2.179
 1176SOL     OW 3482   2.357   1.403   2.019
 1176SOL    HW1 3483   2.289   1.351   2.071
 1176SOL    HW2 3484   2.315   1.435   1.934
 1177SOL     OW 3485   3.542   1.272   2.503
 1177SOL    HW1 3486   3.632   1.266   2.547
 1177SOL    HW2 3487   3.500   1.360   2.524
 1178SOL     OW 3488   3.253   0.574   1.932
 1178SOL    HW1 3489   3.191   0.552   2.008
 1178SOL    HW2 3490   3.346   0.550   1.958
 1179SOL     OW 3491   2.390   0.261   2.173
 1179SOL    HW1 3492   2.439   0.208   2.104
 1179SOL    HW2 3493   2.363   0.349   2.135
 1180SOL     OW 3494   3.616   1.238   3.424
 1180SOL    HW1 3495   3.701   1.188   3.443
 1180SOL    HW2 3496   3.630   1.335   3.445
 1181SOL     OW 3497   2.917   1.348   3.197
 1181SOL    HW1 3498   2.836   1.320   3.248
 1181SOL    HW2 3499   2.999   1.311   3.240
 1182SOL     OW 3500   3.477   1.625   3.516
 1182SOL    HW1 3501   3.461   1.663   3.425
 1182SOL    HW2 3502   3.564   1.575   3.515
 1183SOL     OW 3503   2.997   1.215   2.967
 1183SOL    HW1 3504   2.938   1.250   3.040
 1183SOL    HW2 3505   2.962   1.245   2.879
 1184SOL     OW 3506   3.493   1.099   2.943
 1184SOL    HW1 3507   3.492   1.167   3.017
 1184SOL    HW2 3508   3.415   1.115   2.882
 1185SOL     OW 3509   2.770   0.106   3.251
 1185SOL    HW1 3510   2.795   0.073   3.160
 1185SOL    HW2 3511   2.852   0.143   3.296
 1186SOL     OW 3512   2.836   1.119   3.588
 1186SOL    HW1 3513   2.741   1.130   3.616
 1186SOL    HW2 3514   2.846   1.035   3.535
 1187SOL     OW 3515   2.574   1.057   2.235
 1187SOL    HW1 3516   2.556   1.041   2.332
 1187SOL    HW2 3517   2.653   1.003   2.206
 1188SOL     OW 3518   2.284   0.814   3.115
 1188SOL    HW1 3519   2.356   0.827   3.183
 1188SOL    HW2 3520   2.244   0.723   3.126
 1189SOL     OW 3521   3.125   0.376   3.140
 1189SOL    HW1 3522   3.163   0.456   3.189
 1189SOL    HW2 3523   3.031   0.395   3.114
 1190SOL     OW 3524   1.935   1.572   3.214
 1190SOL    HW1 3525   1.900   1.642   3.152
 1190SOL    HW2 3526   2.035   1.571   3.209
 1191SOL     OW 3527   2.212   1.115   2.347
 1191SOL    HW1 3528   2.199   1.187   2.278
 1191SOL    HW2 3529   2.212   1.025   2.302
 1192SOL     OW 3530   2.412   0.544   2.724
 1192SOL    HW1 3531   2.426   0.603   2.645
 1192SOL    HW2 3532   2.480   0.564   2.794
 1193SOL     OW 3533   3.109   1.353   2.255
 1193SOL    HW1 3534   3.170   1.427   2.284
 1193SOL    HW2 3535   3.015   1.373   2.285
 1194SOL     OW 3536   3.147   1.460   3.009
 1194SOL    HW1 3537   3.206   1.465   3.090
 1194SOL    HW2 3538   3.091   1.378   3.013
 1195SOL     OW 3539   3.440   0.620   2.346
 1195SOL    HW1 3540   3.391   0.675   2.413
 1195SOL    HW2 3541   3.478   0.679   2.275
 1196SOL     OW 3542   2.211   1.527   3.174
 1196SOL    HW1 3543   2.194   1.484   3.086
 1196SOL    HW2 3544   2.309   1.542   3.186
 1197SOL     OW 3545   2.278   0.745   3.463
 1197SOL    HW1 3546   2.342   0.793   3.403
 1197SOL    HW2 3547   2.311   0.653   3.482
 1198SOL     OW 3548   3.468   0.782   3.552
 1198SOL    HW1 3549   3.377   0.825   3.551
 1198SOL    HW2 3550   3.524   0.822   3.479
 1199SOL     OW 3551   2.863   0.120   3.634
 1199SOL    HW1 3552   2.918   0.196   3.600
 1199SOL    HW2 3553   2.892   0.035   3.591
 1200SOL     OW 3554   2.354   0.043   3.631
 1200SOL    HW1 3555   2.329  -0.015   3.554
 1200SOL    HW2 3556   2.288   0.118   3.640
 1201SOL     OW 3557   2.446   0.872   2.896
 1201SOL    HW1 3558   2.480   0.965   2.892
 1201SOL    HW2 3559   2.385   0.862   2.975
 1202SOL     OW 3560   3.215   0.859   2.888
 1202SOL    HW1 3561   3.125   0.852   2.846
 1202SOL    HW2 3562   3.263   0.771   2.882
 1203SOL     OW 3563   3.063   0.526   2.128
 1203SOL    HW1 3564   3.075   0.444   2.184
 1203SOL    HW2 3565   3.017   0.597   2.183
 1204SOL     OW 3566   2.159   0.189   3.107
 1204SOL    HW1 3567   2.123   0.230   3.191
 1204SOL    HW2 3568   2.143   0.090   3.109
 1205SOL     OW 3569   1.910   1.310   3.139
 1205SOL    HW1 3570   1.945   1.249   3.210
 1205SOL    HW2 3571   1.916   1.405   3.170
 1206SOL     OW 3572   2.588   0.632   2.918
 1206SOL    HW1 3573   2.664   0.612   2.856
 1206SOL    HW2 3574   2.552   0.724   2.897
 1207SOL     OW 3575   3.606   0.966   3.712
 1207SOL    HW1 3576   3.560   0.898   3.655
 1207SOL    HW2 3577   3.551   0.982   3.794
 1208SOL     OW 3578   2.173   0.045   2.498
 1208SOL    HW1 3579   2.155   0.140   2.520
 1208SOL    HW2 3580   2.163  -0.011   2.580
 1209SOL     OW 3581   3.486   0.379   2.226
 1209SOL    HW1 3582   3.507   0.303   2.287
 1209SOL    HW2 3583   3.458   0.458   2.281
 1210SOL     OW 3584   2.886   0.756   2.821
 1210SOL    HW1 3585   2.882   0.777   2.918
 1210SOL    HW2 3586   2.859   0.660   2.807
 1211SOL     OW 3587   2.848   1.574   3.587
 1211SOL    HW1 3588   2.829   1.616   3.499
 1211SOL    HW2 3589   2.889   1.483   3.573
 1212SOL     OW 3590   3.727   1.504   3.457
 1212SOL    HW1 3591   3.760   1.528   3.366
 1212SOL    HW2 3592   3.799   1.520   3.525
 1213SOL     OW 3593   2.204   0.912   3.667
 1213SOL    HW1 3594   2.281   0.938   3.725
 1213SOL    HW2 3595   2.235   0.849   3.595
 1214SOL     OW 3596   3.388   0.267   1.993
 1214SOL    HW1 3597   3.316   0.202   2.020
 1214SOL    HW2 3598   3.426   0.311   2.074
 1215SOL     OW 3599   3.153   0.826   1.890
 1215SOL    HW1 3600   3.193   0.735   1.898
 1215SOL    HW2 3601   3.183   0.869   1.805
 1216SOL     OW 3602   2.932   1.337   2.716
 1216SOL    HW1 3603   2.934   1.259   2.653
 1216SOL    HW2 3604   2.992   1.409   2.682
 1217SOL     OW 3605   2.173   0.807   2.805
 1217SOL    HW1 3606   2.269   0.833   2.800
 1217SOL    HW2 3607   2.166   0.712   2.838
 1218SOL     OW 3608   2.190   0.526   2.874
 1218SOL    HW1 3609   2.150   0.435   2.861
 1218SOL    HW2 3610   2.271   0.535   2.815
 1219SOL     OW 3611   3.000   0.369   3.556
 1219SOL    HW1 3612   2.942   0.425   3.616
 1219SOL    HW2 3613   3.090   0.411   3.550
 1220SOL     OW 3614   3.011   0.210   3.335
 1220SOL    HW1 3615   3.005   0.272   3.413
 1220SOL    HW2 3616   3.057   0.257   3.260
 1221SOL     OW 3617   1.871   1.316   2.075
 1221SOL    HW1 3618   1.786   1.341   2.027
 1221SOL    HW2 3619   1.867   1.219   2.100
 1222SOL     OW 3620   1.954   1.778   2.803
 1222SOL    HW1 3621   1.915   1.697   2.760
 1222SOL    HW2 3622   2.049   1.790   2.773
 1223SOL     OW 3623   2.365   1.567   2.771
 1223SOL    HW1 3624   2.432   1.638   2.794
 1223SOL    HW2 3625   2.406   1.501   2.708
 1224SOL     OW 3626   2.840   0.795   3.087
 1224SOL    HW1 3627   2.899   0.771   3.165
 1224SOL    HW2 3628   2.750   0.753   3.100
 1225SOL     OW 3629   1.898   0.550   2.980
 1225SOL    HW1 3630   1.980   0.535   2.924
 1225SOL    HW2 3631   1.924   0.553   3.076
 1226SOL     OW 3632   2.048   0.519   3.613
 1226SOL    HW1 3633   2.102   0.470   3.544
 1226SOL    HW2 3634   2.004   0.598   3.570
 1227SOL     OW 3635   3.244   0.934   3.524
 1227SOL    HW1 3636   3.262   1.032   3.527
 1227SOL    HW2 3637   3.237   0.904   3.429
 1228SOL     OW 3638   2.680   0.573   2.221
 1228SOL    HW1 3639   2.689   0.492   2.163
 1228SOL    HW2 3640   2.601   0.627   2.190
 1229SOL     OW 3641   3.527   0.599   3.040
 1229SOL    HW1 3642   3.506   0.540   3.117
 1229SOL    HW2 3643   3.620   0.580   3.007
 1230SOL     OW 3644   2.098   1.549   3.593
 1230SOL    HW1 3645   2.074   1.624   3.655
 1230SOL    HW2 3646   2.107   1.464   3.644
 1231SOL     OW 3647   2.566   0.452   3.117
 1231SOL    HW1 3648   2.509   0.374   3.091
 1231SOL    HW2 3649   2.565   0.520   3.043
 1232SOL     OW 3650   2.787   1.681   3.331
 1232SOL    HW1 3651   2.759   1.636   3.246
 1232SOL    HW2 3652   2.786   1.780   3.318
 1233SOL     OW 3653   2.323   0.494   2.047
 1233SOL    HW1 3654   2.387   0.566   2.072
 1233SOL    HW2 3655   2.232   0.534   2.034
 1234SOL     OW 3656   2.005   1.137   3.335
 1234SOL    HW1 3657   2.007   1.092   3.424
 1234SOL    HW2 3658   2.025   1.071   3.263
 1235SOL     OW 3659   3.181   1.046   3.083
 1235SOL    HW1 3660   3.209   0.978   3.015
 1235SOL    HW2 3661   3.111   1.106   3.043
 1236SOL     OW 3662   3.175   0.854   2.163
 1236SOL    HW1 3663   3.098   0.828   2.222
 1236SOL    HW2 3664   3.150   0.842   2.067
 1237SOL     OW 3665   3.620   1.743   3.004
 1237SOL    HW1 3666   3.688   1.780   2.940
 1237SOL    HW2 3667   3.607   1.645   2.985
 1238SOL     OW 3668   3.104   1.733   2.969
 1238SOL    HW1 3669   3.190   1.760   2.926
 1238SOL    HW2 3670   3.108   1.636   2.993
 1239SOL     OW 3671   1.946   1.265   2.873
 1239SOL    HW1 3672   1.930   1.280   2.971
 1239SOL    HW2 3673   1.874   1.206   2.836
 1240SOL     OW 3674   2.534   1.666   3.574
 1240SOL    HW1 3675   2.485   1.751   3.595
 1240SOL    HW2 3676   2.609   1.685   3.511
 1241SOL     OW 3677   3.560   0.131   2.349
 1241SOL    HW1 3678   3.650   0.127   2.305
 1241SOL    HW2 3679   3.555   0.064   2.422
 1242SOL     OW 3680   3.257   1.572   2.345
 1242SOL    HW1 3681   3.320   1.604   2.275
 1242SOL    HW2 3682   3.202   1.649   2.377
 1243SOL     OW 3683   1.998   1.765   3.735
 1243SOL    HW1 3684   1.948   1.709   3.801
 1243SOL    HW2 3685   2.046   1.838   3.783
 1244SOL     OW 3686   3.143   0.927   2.527
 1244SOL    HW1 3687   3.218   0.863   2.544
 1244SOL    HW2 3688   3.176   1.005   2.475
 1245SOL     OW 3689   2.669   1.278   3.291
 1245SOL    HW1 3690   2.641   1.317   3.379
 1245SOL    HW2 3691   2.599   1.296   3.222
 1246SOL     OW 3692   2.547   1.601   2.012
 1246SOL    HW1 3693   2.547   1.623   1.914
 1246SOL    HW2 3694   2.485   1.524   2.029
 1247SOL     OW 3695   3.485   1.727   3.249
 1247SOL    HW1 3696   3.537   1.730   3.164
 1247SOL    HW2 3697   3.470   1.820   3.282
 1248SOL     OW 3698   3.720   0.156   2.828
 1248SOL    HW1 3699   3.751   0.073   2.781
 1248SOL    HW2 3700   3.629   0.181   2.796
 1249SOL     OW 3701   2.121   0.305   2.578
 1249SOL    HW1 3702   2.034   0.347   2.549
 1249SOL    HW2 3703   2.125   0.301   2.677
 1250SOL     OW 3704   3.071   1.602   1.895
 1250SOL    HW1 3705   3.060   1.508   1.928
 1250SOL    HW2 3706   3.004   1.620   1.823
 1251SOL     OW 3707   2.687   1.009   3.241
 1251SOL    HW1 3708   2.736   0.995   3.155
 1251SOL    HW2 3709   2.684   1.107   3.262
 1252SOL     OW 3710   2.782   0.910   2.149
 1252SOL    HW1 3711   2.844   0.945   2.079
 1252SOL    HW2 3712   2.828   0.838   2.201
 1253SOL     OW 3713   3.353   1.625   1.905
 1253SOL    HW1 3714   3.254   1.616   1.897
 1253SOL    HW2 3715   3.394   1.630   1.814
 1254SOL     OW 3716   2.225   1.304   3.353
 1254SOL    HW1 3717   2.219   1.383   3.293
 1254SOL    HW2 3718   2.147   1.243   3.338
 1255SOL     OW 3719   3.497   1.294   3.150
 1255SOL    HW1 3720   3.545   1.266   3.234
 1255SOL    HW2 3721   3.424   1.359   3.174
 1256SOL     OW 3722   2.920   1.106   2.575
 1256SOL    HW1 3723   2.844   1.056   2.616
 1256SOL    HW2 3724   2.988   1.041   2.540
 1257SOL     OW 3725   2.883   0.237   2.828
 1257SOL    HW1 3726   2.870   0.190   2.741
 1257SOL    HW2 3727   2.879   0.171   2.903
 1258SOL     OW 3728   2.463   1.479   2.342
 1258SOL    HW1 3729   2.515   1.422   2.278
 1258SOL    HW2 3730   2.424   1.557   2.293
 1259SOL     OW 3731   3.601   0.399   3.243
 1259SOL    HW1 3732   3.677   0.463   3.243
 1259SOL    HW2 3733   3.623   0.321   3.183
 1260SOL     OW 3734   2.134   1.312   2.168
 1260SOL    HW1 3735   2.044   1.309   2.124
 1260SOL    HW2 3736   2.133   1.380   2.241
 1261SOL     OW 3737   1.976   1.037   3.588
 1261SOL    HW1 3738   1.893   1.008   3.635
 1261SOL    HW2 3739   2.055   0.988   3.625
 1262SOL     OW 3740   2.534   0.207   3.361
 1262SOL    HW1 3741   2.616   0.173   3.314
 1262SOL    HW2 3742   2.558   0.233   3.455
 1263SOL     OW 3743   1.941   0.331   1.893
 1263SOL    HW1 3744   1.847   0.310   1.867
 1263SOL    HW2 3745   1.973   0.411   1.843
 1264SOL     OW 3746   3.284   0.856   3.259
 1264SOL    HW1 3747   3.229   0.920   3.205
 1264SOL    HW2 3748   3.378   0.857   3.226
 1265SOL     OW 3749   1.926   0.149   2.174
 1265SOL    HW1 3750   1.916   0.232   2.120
 1265SOL    HW2 3751   2.009   0.100   2.147
 1266SOL     OW 3752   3.042   1.339   1.982
 1266SOL    HW1 3753   2.946   1.311   1.976
 1266SOL    HW2 3754   3.071   1.339   2.078
 1267SOL     OW 3755   2.485   0.830   3.295
 1267SOL    HW1 3756   2.542   0.911   3.281
 1267SOL    HW2 3757   2.544   0.749   3.305
 1268SOL     OW 3758   3.350   1.783   2.850
 1268SOL    HW1 3759   3.369   1.844   2.773
 1268SOL    HW2 3760   3.435   1.762   2.897
 1269SOL     OW 3761   2.586   0.562   3.568
 1269SOL    HW1 3762   2.628   0.631   3.626
 1269SOL    HW2 3763   2.611   0.471   3.600
 1270SOL     OW 3764   3.332   1.199   3.514
 1270SOL    HW1 3765   3.324   1.226   3.610
 1270SOL    HW2 3766   3.427   1.212   3.484
 1271SOL     OW 3767   2.239   1.742   3.430
 1271SOL    HW1 3768   2.152   1.790   3.421
 1271SOL    HW2 3769   2.223   1.652   3.471
 1272SOL     OW 3770   3.524   0.878   3.117
 1272SOL    HW1 3771   3.528   0.788   3.074
 1272SOL    HW2 3772   3.518   0.948   3.047
 1273SOL     OW 3773   3.085   0.314   2.321
 1273SOL    HW1 3774   3.147   0.236   2.315
 1273SOL    HW2 3775   3.109   0.370   2.400
 1274SOL     OW 3776   2.450   0.737   2.530
 1274SOL    HW1 3777   2.491   0.828   2.519
 1274SOL    HW2 3778   2.379   0.724   2.460
 1275SOL     OW 3779   3.621   0.369   3.517
 1275SOL    HW1 3780   3.612   0.379   3.418
 1275SOL    HW2 3781   3.550   0.308   3.552
 1276SOL     OW 3782   3.601   0.936   3.372
 1276SOL    HW1 3783   3.593   1.034   3.388
 1276SOL    HW2 3784   3.587   0.917   3.275
 1277SOL     OW 3785   2.729   1.366   1.904
 1277SOL    HW1 3786   2.682   1.392   1.988
 1277SOL    HW2 3787   2.745   1.447   1.848
 1278SOL     OW 3788   2.528   1.787   2.801
 1278SOL    HW1 3789   2.511   1.885   2.791
 1278SOL    HW2 3790   2.626   1.769   2.794
 1279SOL     OW 3791   2.730   0.969   2.719
 1279SOL    HW1 3792   2.782   0.892   2.756
 1279SOL    HW2 3793   2.689   1.021   2.794
 1280SOL     OW 3794   2.941   0.989   1.946
 1280SOL    HW1 3795   2.914   1.043   1.867
 1280SOL    HW2 3796   3.019   0.931   1.922
 1281SOL     OW 3797   3.735   1.584   2.728
 1281SOL    HW1 3798   3.672   1.578   2.651
 1281SOL    HW2 3799   3.705   1.521   2.800
 1282SOL     OW 3800   2.084   1.302   3.731
 1282SOL    HW1 3801   2.034   1.230   3.682
 1282SOL    HW2 3802   2.044   1.314   3.822
 1283SOL     OW 3803   1.941   1.225   2.522
 1283SOL    HW1 3804   1.954   1.181   2.612
 1283SOL    HW2 3805   2.015   1.199   2.461
 1284SOL     OW 3806   2.548   1.399   3.504
 1284SOL    HW1 3807   2.464   1.353   3.532
 1284SOL    HW2 3808   2.544   1.495   3.531
 1285SOL     OW 3809   3.665   0.185   3.095
 1285SOL    HW1 3810   3.683   0.094   3.131
 1285SOL    HW2 3811   3.688   0.187   2.998
 1286SOL     OW 3812   2.291   0.426   2.387
 1286SOL    HW1 3813   2.329   0.356   2.325
 1286SOL    HW2 3814   2.240   0.381   2.460
 1287SOL     OW 3815   3.565   1.482   2.948
 1287SOL    HW1 3816   3.481   1.467   2.896
 1287SOL    HW2 3817   3.570   1.416   3.023
 1288SOL     OW 3818   2.195   0.554   3.151
 1288SOL    HW1 3819   2.254   0.499   3.211
 1288SOL    HW2 3820   2.212   0.530   3.056
 1289SOL     OW 3821   2.693   1.579   2.541
 1289SOL    HW1 3822   2.683   1.642   2.464
 1289SOL    HW2 3823   2.614   1.518   2.543
 1290SOL     OW 3824   3.290   0.225   2.980
 1290SOL    HW1 3825   3.329   0.146   3.027
 1290SOL    HW2 3826   3.235   0.278   3.044
 1291SOL     OW 3827   2.870   3.852   3.005
 1291SOL    HW1 3828   2.809   3.784   2.965
 1291SOL    HW2 3829   2.962   3.813   3.012
 1292SOL     OW 3830   2.634   1.329   2.186
 1292SOL    HW1 3831   2.606   1.233   2.192
 1292SOL    HW2 3832   2.722   1.340   2.233
 1293SOL     OW 3833   2.486   1.558   3.152
 1293SOL    HW1 3834   2.483   1.646   3.199
 1293SOL    HW2 3835   2.576   1.546   3.111
 1294SOL     OW 3836   3.210   0.042   2.030
 1294SOL    HW1 3837   3.253  -0.020   1.964
 1294SOL    HW2 3838   3.116   0.012   2.048
 1295SOL     OW 3839   3.153   0.464   2.542
 1295SOL    HW1 3840   3.098   0.548   2.545
 1295SOL    HW2 3841   3.152   0.420   2.632
 1296SOL     OW 3842   3.468   0.213   2.750
 1296SOL    HW1 3843   3.395   0.218   2.819
 1296SOL    HW2 3844   3.460   0.292   2.688
 1297SOL     OW 3845   1.904   1.061   2.170
 1297SOL    HW1 3846   2.002   1.060   2.148
 1297SOL    HW2 3847   1.875   0.968   2.194
 1298SOL     OW 3848   2.746   1.656   2.202
 1298SOL    HW1 3849   2.673   1.636   2.137
 1298SOL    HW2 3850   2.720   1.736   2.257
 1299SOL     OW 3851   2.090   2.490   0.121
 1299SOL    HW1 3852   1.998   2.478   0.158
 1299SOL    HW2 3853   2.087   2.483   0.021
 1300SOL     OW 3854   2.083   2.145   0.994
 1300SOL    HW1 3855   2.115   2.109   1.082
 1300SOL    HW2 3856   1.991   2.111   0.975
 1301SOL     OW 3857   1.866   2.249   0.631
 1301SOL    HW1 3858   1.782   2.277   0.677
 1301SOL    HW2 3859   1.851   2.162   0.584
 1302SOL     OW 3860   2.430   3.156   1.182
 1302SOL    HW1 3861   2.340   3.152   1.140
 1302SOL    HW2 3862   2.447   3.248   1.217
 1303SOL     OW 3863   3.417   3.371   0.705
 1303SOL    HW1 3864   3.378   3.348   0.794
 1303SOL    HW2 3865   3.344   3.377   0.637
 1304SOL     OW 3866   2.994   2.564   0.697
 1304SOL    HW1 3867   3.046   2.648   0.680
 1304SOL    HW2 3868   2.944   2.573   0.783
 1305SOL     OW 3869   3.618   2.475   0.228
 1305SOL    HW1 3870   3.602   2.472   0.129
 1305SOL    HW2 3871   3.583   2.392   0.270
 1306SOL     OW 3872   2.610   3.005   1.039
 1306SOL    HW1 3873   2.540   3.039   1.103
 1306SOL    HW2 3874   2.653   3.082   0.993
 1307SOL     OW 3875   2.733   2.631   1.820
 1307SOL    HW1 3876   2.723   2.700   1.892
 1307SOL    HW2 3877   2.757   2.675   1.734
 1308SOL     OW 3878   2.546   2.862   0.650
 1308SOL    HW1 3879   2.616   2.851   0.719
 1308SOL    HW2 3880   2.471   2.918   0.687
 1309SOL     OW 3881   2.573   3.016   1.816
 1309SOL    HW1 3882   2.625   3.095   1.847
 1309SOL    HW2 3883   2.487   3.047   1.775
 1310SOL     OW 3884   2.189   3.286   1.066
 1310SOL    HW1 3885   2.112   3.243   1.020
 1310SOL    HW2 3886   2.241   3.341   1.000
 1311SOL     OW 3887   3.324   3.361   1.354
 1311SOL    HW1 3888   3.376   3.447   1.361
 1311SOL    HW2 3889   3.256   3.358   1.428
 1312SOL     OW 3890   2.313   2.259   1.482
 1312SOL    HW1 3891   2.394   2.200   1.487
 1312SOL    HW2 3892   2.231   2.203   1.491
 1313SOL     OW 3893   3.461   2.300   0.744
 1313SOL    HW1 3894   3.382   2.321   0.686
 1313SOL    HW2 3895   3.497   2.385   0.782
 1314SOL     OW 3896   2.088   3.587   0.481
 1314SOL    HW1 3897   2.104   3.661   0.545
 1314SOL    HW2 3898   2.165   3.580   0.417
 1315SOL     OW 3899   3.000   3.201   1.698
 1315SOL    HW1 3900   3.045   3.200   1.787
 1315SOL    HW2 3901   2.944   3.119   1.688
 1316SOL     OW 3902   2.087   3.309   0.534
 1316SOL    HW1 3903   2.075   3.408   0.538
 1316SOL    HW2 3904   2.029   3.266   0.603
 1317SOL     OW 3905   2.128   2.952   0.899
 1317SOL    HW1 3906   2.124   2.858   0.933
 1317SOL    HW2 3907   2.067   3.009   0.953
 1318SOL     OW 3908   2.475   3.653   1.433
 1318SOL    HW1 3909   2.389   3.639   1.482
 1318SOL    HW2 3910   2.508   3.746   1.451
 1319SOL     OW 3911   2.448   2.847   0.144
 1319SOL    HW1 3912   2.490   2.891   0.064
 1319SOL    HW2 3913   2.492   2.879   0.227
 1320SOL     OW 3914   3.458   1.986   1.469
 1320SOL    HW1 3915   3.469   2.067   1.411
 1320SOL    HW2 3916   3.449   2.014   1.564
 1321SOL     OW 3917   1.974   2.521   0.562
 1321SOL    HW1 3918   1.948   2.426   0.579
 1321SOL    HW2 3919   1.969   2.573   0.647
 1322SOL     OW 3920   3.714   3.614   0.315
 1322SOL    HW1 3921   3.747   3.613   0.410
 1322SOL    HW2 3922   3.739   3.700   0.272
 1323SOL     OW 3923   1.895   3.473   0.102
 1323SOL    HW1 3924   1.885   3.376   0.123
 1323SOL    HW2 3925   1.878   3.527   0.185
 1324SOL     OW 3926   3.561   2.783   0.646
 1324SOL    HW1 3927   3.643   2.736   0.615
 1324SOL    HW2 3928   3.525   2.841   0.573
 1325SOL     OW 3929   3.508   2.968   0.436
 1325SOL    HW1 3930   3.590   2.971   0.379
 1325SOL    HW2 3931   3.515   3.035   0.509
 1326SOL     OW 3932   1.983   2.603   1.586
 1326SOL    HW1 3933   2.079   2.631   1.587
 1326SOL    HW2 3934   1.925   2.684   1.585
 1327SOL     OW 3935   2.474   3.253   0.735
 1327SOL    HW1 3936   2.428   3.165   0.747
 1327SOL    HW2 3937   2.463   3.283   0.640
 1328SOL     OW 3938   3.153   3.099   1.422
 1328SOL    HW1 3939   3.178   3.028   1.357
 1328SOL    HW2 3940   3.211   3.092   1.504
 1329SOL     OW 3941   2.678   1.870   0.510
 1329SOL    HW1 3942   2.723   1.956   0.486
 1329SOL    HW2 3943   2.580   1.884   0.517
 1330SOL     OW 3944   2.053   2.825   1.274
 1330SOL    HW1 3945   2.142   2.782   1.260
 1330SOL    HW2 3946   1.982   2.774   1.225
 1331SOL     OW 3947   3.380   2.866   0.204
 1331SOL    HW1 3948   3.308   2.803   0.234
 1331SOL    HW2 3949   3.430   2.900   0.284
 1332SOL     OW 3950   3.034   3.672   1.594
 1332SOL    HW1 3951   3.092   3.726   1.533
 1332SOL    HW2 3952   3.054   3.575   1.583
 1333SOL     OW 3953   2.187   2.123   1.760
 1333SOL    HW1 3954   2.268   2.169   1.798
 1333SOL    HW2 3955   2.107   2.145   1.815
 1334SOL     OW 3956   3.328   3.281   0.950
 1334SOL    HW1 3957   3.260   3.301   1.020
 1334SOL    HW2 3958   3.318   3.186   0.920
 1335SOL     OW 3959   3.529   3.590   0.578
 1335SOL    HW1 3960   3.501   3.578   0.482
 1335SOL    HW2 3961   3.495   3.513   0.632
 1336SOL     OW 3962   2.457   2.585   0.272
 1336SOL    HW1 3963   2.463   2.670   0.220
 1336SOL    HW2 3964   2.388   2.595   0.344
 1337SOL     OW 3965   3.140   2.216   0.932
 1337SOL    HW1 3966   3.046   2.183   0.940
 1337SOL    HW2 3967   3.200   2.164   0.993
 1338SOL     OW 3968   3.451   3.532   0.307
 1338SOL    HW1 3969   3.548   3.555   0.301
 1338SOL    HW2 3970   3.415   3.513   0.216
 1339SOL     OW 3971   2.652   2.475   1.452
 1339SOL    HW1 3972   2.627   2.451   1.545
 1339SOL    HW2 3973   2.613   2.408   1.389
 1340SOL     OW 3974   3.254   2.332   1.679
 1340SOL    HW1 3975   3.254   2.381   1.766
 1340SOL    HW2 3976   3.319   2.255   1.685
 1341SOL     OW 3977   2.816   2.748   1.582
 1341SOL    HW1 3978   2.874   2.675   1.545
 1341SOL    HW2 3979   2.763   2.788   1.508
 1342SOL     OW 3980   2.856   2.269   1.232
 1342SOL    HW1 3981   2.768   2.293   1.272
 1342SOL    HW2 3982   2.841   2.220   1.146
 1343SOL     OW 3983   2.912   2.560   0.426
 1343SOL    HW1 3984   2.933   2.556   0.524
 1343SOL    HW2 3985   2.826   2.514   0.407
 1344SOL     OW 3986   1.950   2.689   0.779
 1344SOL    HW1 3987   2.035   2.676   0.829
 1344SOL    HW2 3988   1.902   2.768   0.815
 1345SOL     OW 3989   1.995   3.712   1.584
 1345SOL    HW1 3990   1.997   3.692   1.681
 1345SOL    HW2 3991   1.904   3.697   1.547
 1346SOL     OW 3992   2.750   2.216   0.201
 1346SOL    HW1 3993   2.793   2.277   0.135
 1346SOL    HW2 3994   2.749   2.123   0.165
 1347SOL     OW 3995   3.568   2.438   1.832
 1347SOL    HW1 3996   3.532   2.515   1.780
 1347SOL    HW2 3997   3.600   2.367   1.770
 1348SOL     OW 3998   3.242   3.006   0.538
 1348SOL    HW1 3999   3.325   2.988   0.485
 1348SOL    HW2 4000   3.184   3.071   0.489
 1349SOL     OW 4001   2.412   2.037   0.899
 1349SOL    HW1 4002   2.414   2.068   0.994
 1349SOL    HW2 4003   2.412   2.117   0.838
 1350SOL     OW 4004   2.859   3.307   0.465
 1350SOL    HW1 4005   2.823   3.389   0.420
 1350SOL    HW2 4006   2.847   3.315   0.564
 1351SOL     OW 4007   2.210   3.682   0.848
 1351SOL    HW1 4008   2.242   3.587   0.855
 1351SOL    HW2 4009   2.287   3.744   0.862
 1352SOL     OW 4010   3.676   2.941   0.872
 1352SOL    HW1 4011   3.628   2.899   0.795
 1352SOL    HW2 4012   3.615   2.944   0.952
 1353SOL     OW 4013   3.088   3.397   1.515
 1353SOL    HW1 4014   3.075   3.323   1.581
 1353SOL    HW2 4015   3.025   3.383   1.438
 1354SOL     OW 4016   2.185   2.816   0.243
 1354SOL    HW1 4017   2.275   2.834   0.201
 1354SOL    HW2 4018   2.154   2.725   0.217
 1355SOL     OW 4019   3.346   2.610   0.725
 1355SOL    HW1 4020   3.336   2.564   0.813
 1355SOL    HW2 4021   3.426   2.669   0.727
 1356SOL     OW 4022   2.328   3.124   1.732
 1356SOL    HW1 4023   2.302   3.131   1.635
 1356SOL    HW2 4024   2.246   3.124   1.789
 1357SOL     OW 4025   2.972   3.658   0.213
 1357SOL    HW1 4026   2.908   3.611   0.275
 1357SOL    HW2 4027   3.012   3.592   0.150
 1358SOL     OW 4028   2.061   2.147   1.496
 1358SOL    HW1 4029   1.978   2.201   1.489
 1358SOL    HW2 4030   2.072   2.113   1.590
 1359SOL     OW 4031   3.507   3.236   0.086
 1359SOL    HW1 4032   3.463   3.326   0.082
 1359SOL    HW2 4033   3.440   3.166   0.063
 1360SOL     OW 4034   2.334   3.614   0.341
 1360SOL    HW1 4035   2.376   3.690   0.391
 1360SOL    HW2 4036   2.399   3.578   0.275
 1361SOL     OW 4037   3.267   1.966   0.435
 1361SOL    HW1 4038   3.255   1.945   0.338
 1361SOL    HW2 4039   3.364   1.981   0.454
 1362SOL     OW 4040   2.115   3.660   1.232
 1362SOL    HW1 4041   2.170   3.590   1.277
 1362SOL    HW2 4042   2.099   3.634   1.137
 1363SOL     OW 4043   2.793   3.594   0.881
 1363SOL    HW1 4044   2.869   3.547   0.926
 1363SOL    HW2 4045   2.758   3.536   0.807
 1364SOL     OW 4046   2.255   2.552   0.476
 1364SOL    HW1 4047   2.278   2.455   0.487
 1364SOL    HW2 4048   2.158   2.566   0.494
 1365SOL     OW 4049   3.396   2.086   1.728
 1365SOL    HW1 4050   3.406   2.108   1.826
 1365SOL    HW2 4051   3.322   2.021   1.716
 1366SOL     OW 4052   2.484   1.968   0.107
 1366SOL    HW1 4053   2.583   1.957   0.114
 1366SOL    HW2 4054   2.453   1.937   0.018
 1367SOL     OW 4055   2.631   2.140   1.757
 1367SOL    HW1 4056   2.715   2.087   1.746
 1367SOL    HW2 4057   2.578   2.102   1.833
 1368SOL     OW 4058   2.736   3.376   1.193
 1368SOL    HW1 4059   2.718   3.340   1.101
 1368SOL    HW2 4060   2.810   3.323   1.235
 1369SOL     OW 4061   3.203   2.450   1.435
 1369SOL    HW1 4062   3.233   2.415   1.523
 1369SOL    HW2 4063   3.237   2.543   1.422
 1370SOL     OW 4064   2.681   3.255   0.940
 1370SOL    HW1 4065   2.771   3.243   0.897
 1370SOL    HW2 4066   2.610   3.257   0.869
 1371SOL     OW 4067   2.788   2.370   0.899
 1371SOL    HW1 4068   2.763   2.363   0.802
 1371SOL    HW2 4069   2.821   2.281   0.931
 1372SOL     OW 4070   2.408   1.925   0.498
 1372SOL    HW1 4071   2.326   1.924   0.554
 1372SOL    HW2 4072   2.407   2.005   0.438
 1373SOL     OW 4073   3.294   3.062   0.029
 1373SOL    HW1 4074   3.323   2.985   0.086
 1373SOL    HW2 4075   3.207   3.098   0.064
 1374SOL     OW 4076   2.156   1.912   0.188
 1374SOL    HW1 4077   2.217   1.985   0.156
 1374SOL    HW2 4078   2.211   1.838   0.227
 1375SOL     OW 4079   2.808   2.110   0.457
 1375SOL    HW1 4080   2.774   2.152   0.373
 1375SOL    HW2 4081   2.906   2.126   0.465
 1376SOL     OW 4082   2.942   2.544   1.456
 1376SOL    HW1 4083   2.866   2.479   1.462
 1376SOL    HW2 4084   3.028   2.494   1.452
 1377SOL     OW 4085   3.087   3.425   0.791
 1377SOL    HW1 4086   3.104   3.495   0.721
 1377SOL    HW2 4087   3.151   3.437   0.867
 1378SOL     OW 4088   2.329   3.013   0.729
 1378SOL    HW1 4089   2.261   2.993   0.799
 1378SOL    HW2 4090   2.289   3.001   0.638
 1379SOL     OW 4091   3.139   3.665   0.597
 1379SOL    HW1 4092   3.186   3.731   0.538
 1379SOL    HW2 4093   3.069   3.712   0.651
 1380SOL     OW 4094   2.878   2.395   0.027
 1380SOL    HW1 4095   2.849   2.483  -0.010
 1380SOL    HW2 4096   2.954   2.410   0.092
 1381SOL     OW 4097   1.948   2.415   1.390
 1381SOL    HW1 4098   2.043   2.415   1.359
 1381SOL    HW2 4099   1.937   2.482   1.463
 1382SOL     OW 4100   2.421   2.087   1.171
 1382SOL    HW1 4101   2.468   2.007   1.208
 1382SOL    HW2 4102   2.326   2.086   1.199
 1383SOL     OW 4103   2.729   2.321   0.636
 1383SOL    HW1 4104   2.681   2.382   0.573
 1383SOL    HW2 4105   2.755   2.237   0.588
 1384SOL     OW 4106   2.880   1.913   0.746
 1384SOL    HW1 4107   2.818   1.915   0.668
 1384SOL    HW2 4108   2.855   1.837   0.807
 1385SOL     OW 4109   3.303   3.025   0.857
 1385SOL    HW1 4110   3.231   2.956   0.867
 1385SOL    HW2 4111   3.326   3.035   0.761
 1386SOL     OW 4112   3.329   2.473   0.980
 1386SOL    HW1 4113   3.274   2.390   0.974
 1386SOL    HW2 4114   3.397   2.463   1.053
 1387SOL     OW 4115   3.746   2.685   0.379
 1387SOL    HW1 4116   3.810   2.630   0.433
 1387SOL    HW2 4117   3.696   2.625   0.316
 1388SOL     OW 4118   2.348   3.280   0.155
 1388SOL    HW1 4119   2.274   3.250   0.215
 1388SOL    HW2 4120   2.335   3.243   0.063
 1389SOL     OW 4121   3.543   3.133   0.642
 1389SOL    HW1 4122   3.634   3.129   0.684
 1389SOL    HW2 4123   3.501   3.222   0.663
 1390SOL     OW 4124   3.251   2.438   0.075
 1390SOL    HW1 4125   3.187   2.418   0.150
 1390SOL    HW2 4126   3.325   2.371   0.076
 1391SOL     OW 4127   2.389   2.124   0.313
 1391SOL    HW1 4128   2.430   2.067   0.243
 1391SOL    HW2 4129   2.366   2.213   0.275
 1392SOL     OW 4130   3.618   3.099   1.561
 1392SOL    HW1 4131   3.703   3.051   1.578
 1392SOL    HW2 4132   3.628   3.196   1.586
 1393SOL     OW 4133   2.918   3.213   1.337
 1393SOL    HW1 4134   2.837   3.184   1.387
 1393SOL    HW2 4135   2.999   3.172   1.378
 1394SOL     OW 4136   3.476   3.488   1.651
 1394SOL    HW1 4137   3.462   3.529   1.561
 1394SOL    HW2 4138   3.562   3.437   1.652
 1395SOL     OW 4139   2.996   3.078   1.106
 1395SOL    HW1 4140   2.936   3.112   1.178
 1395SOL    HW2 4141   2.962   3.107   1.017
 1396SOL     OW 4142   3.493   2.961   1.081
 1396SOL    HW1 4143   3.493   3.028   1.155
 1396SOL    HW2 4144   3.415   2.977   1.021
 1397SOL     OW 4145   2.785   1.958   1.393
 1397SOL    HW1 4146   2.806   1.935   1.298
 1397SOL    HW2 4147   2.864   2.001   1.436
 1398SOL     OW 4148   2.842   2.976   1.721
 1398SOL    HW1 4149   2.747   2.996   1.747
 1398SOL    HW2 4150   2.845   2.894   1.664
 1399SOL     OW 4151   2.577   2.924   0.374
 1399SOL    HW1 4152   2.557   2.906   0.470
 1399SOL    HW2 4153   2.657   2.870   0.346
 1400SOL     OW 4154   2.284   2.678   1.253
 1400SOL    HW1 4155   2.357   2.691   1.321
 1400SOL    HW2 4156   2.245   2.586   1.263
 1401SOL     OW 4157   3.125   2.239   1.278
 1401SOL    HW1 4158   3.162   2.318   1.327
 1401SOL    HW2 4159   3.030   2.256   1.253
 1402SOL     OW 4160   1.934   3.434   1.350
 1402SOL    HW1 4161   1.901   3.511   1.295
 1402SOL    HW2 4162   2.034   3.434   1.350
 1403SOL     OW 4163   2.209   2.979   0.483
 1403SOL    HW1 4164   2.207   3.059   0.423
 1403SOL    HW2 4165   2.210   2.895   0.428
 1404SOL     OW 4166   2.413   2.405   0.862
 1404SOL    HW1 4167   2.427   2.465   0.783
 1404SOL    HW2 4168   2.481   2.426   0.932
 1405SOL     OW 4169   3.108   3.214   0.395
 1405SOL    HW1 4170   3.169   3.288   0.424
 1405SOL    HW2 4171   3.015   3.235   0.424
 1406SOL     OW 4172   3.147   3.322   1.147
 1406SOL    HW1 4173   3.206   3.326   1.227
 1406SOL    HW2 4174   3.091   3.239   1.150
 1407SOL     OW 4175   3.442   2.483   0.482
 1407SOL    HW1 4176   3.391   2.534   0.552
 1407SOL    HW2 4177   3.473   2.546   0.411
 1408SOL     OW 4178   2.211   3.389   1.312
 1408SOL    HW1 4179   2.193   3.346   1.224
 1408SOL    HW2 4180   2.309   3.404   1.323
 1409SOL     OW 4181   2.276   2.613   1.599
 1409SOL    HW1 4182   2.344   2.656   1.540
 1409SOL    HW2 4183   2.305   2.519   1.621
 1410SOL     OW 4184   3.470   2.645   1.684
 1410SOL    HW1 4185   3.379   2.686   1.683
 1410SOL    HW2 4186   3.526   2.689   1.613
 1411SOL     OW 4187   2.860   1.992   1.744
 1411SOL    HW1 4188   2.920   2.072   1.732
 1411SOL    HW2 4189   2.911   1.909   1.720
 1412SOL     OW 4190   2.357   1.908   1.748
 1412SOL    HW1 4191   2.322   1.845   1.678
 1412SOL    HW2 4192   2.294   1.985   1.758
 1413SOL     OW 4193   2.446   2.733   1.034
 1413SOL    HW1 4194   2.480   2.827   1.030
 1413SOL    HW2 4195   2.385   2.723   1.113
 1414SOL     OW 4196   3.215   2.721   1.026
 1414SOL    HW1 4197   3.125   2.713   0.984
 1414SOL    HW2 4198   3.263   2.633   1.020
 1415SOL     OW 4199   3.061   2.388   0.268
 1415SOL    HW1 4200   3.073   2.305   0.323
 1415SOL    HW2 4201   3.015   2.458   0.323
 1416SOL     OW 4202   2.160   2.059   1.247
 1416SOL    HW1 4203   2.121   2.096   1.331
 1416SOL    HW2 4204   2.152   1.959   1.247
 1417SOL     OW 4205   1.912   3.172   1.276
 1417SOL    HW1 4206   1.946   3.112   1.349
 1417SOL    HW2 4207   1.917   3.267   1.307
 1418SOL     OW 4208   2.587   2.494   1.057
 1418SOL    HW1 4209   2.663   2.473   0.995
 1418SOL    HW2 4210   2.552   2.585   1.036
 1419SOL     OW 4211   3.592   2.827   1.859
 1419SOL    HW1 4212   3.558   2.759   1.795
 1419SOL    HW2 4213   3.527   2.838   1.934
 1420SOL     OW 4214   2.165   1.926   0.625
 1420SOL    HW1 4215   2.142   2.021   0.646
 1420SOL    HW2 4216   2.177   1.875   0.710
 1421SOL     OW 4217   3.487   2.240   0.364
 1421SOL    HW1 4218   3.506   2.165   0.427
 1421SOL    HW2 4219   3.459   2.321   0.416
 1422SOL     OW 4220   2.886   2.618   0.959
 1422SOL    HW1 4221   2.882   2.639   1.057
 1422SOL    HW2 4222   2.859   2.523   0.945
 1423SOL     OW 4223   2.847   3.423   1.720
 1423SOL    HW1 4224   2.824   3.468   1.634
 1423SOL    HW2 4225   2.894   3.337   1.702
 1424SOL     OW 4226   3.726   3.369   1.595
 1424SOL    HW1 4227   3.766   3.390   1.506
 1424SOL    HW2 4228   3.793   3.386   1.667
 1425SOL     OW 4229   2.212   2.776   1.809
 1425SOL    HW1 4230   2.295   2.802   1.859
 1425SOL    HW2 4231   2.237   2.714   1.734
 1426SOL     OW 4232   3.386   2.143   0.119
 1426SOL    HW1 4233   3.319   2.071   0.140
 1426SOL    HW2 4234   3.426   2.176   0.204
 1427SOL     OW 4235   3.155   2.687   0.021
 1427SOL    HW1 4236   3.195   2.597   0.036
 1427SOL    HW2 4237   3.193   2.727  -0.062
 1428SOL     OW 4238   2.930   3.198   0.854
 1428SOL    HW1 4239   2.934   3.120   0.791
 1428SOL    HW2 4240   2.991   3.270   0.821
 1429SOL     OW 4241   2.173   2.668   0.943
 1429SOL    HW1 4242   2.269   2.693   0.938
 1429SOL    HW2 4243   2.165   2.574   0.977
 1430SOL     OW 4244   2.192   2.388   1.012
 1430SOL    HW1 4245   2.152   2.298   1.000
 1430SOL    HW2 4246   2.272   2.397   0.953
 1431SOL     OW 4247   2.997   2.235   1.690
 1431SOL    HW1 4248   2.944   2.292   1.752
 1431SOL    HW2 4249   3.089   2.272   1.681
 1432SOL     OW 4250   3.025   2.066   1.474
 1432SOL    HW1 4251   3.010   2.128   1.551
 1432SOL    HW2 4252   3.066   2.116   1.398
 1433SOL     OW 4253   1.877   3.182   0.177
 1433SOL    HW1 4254   1.784   3.202   0.144
 1433SOL    HW2 4255   1.877   3.093   0.222
 1434SOL     OW 4256   1.951   3.662   0.944
 1434SOL    HW1 4257   1.913   3.580   0.902
 1434SOL    HW2 4258   2.042   3.679   0.908
 1435SOL     OW 4259   2.352   3.442   0.902
 1435SOL    HW1 4260   2.420   3.510   0.928
 1435SOL    HW2 4261   2.394   3.373   0.843
 1436SOL     OW 4262   2.840   2.657   1.225
 1436SOL    HW1 4263   2.899   2.631   1.302
 1436SOL    HW2 4264   2.750   2.615   1.237
 1437SOL     OW 4265   1.892   2.409   1.123
 1437SOL    HW1 4266   1.974   2.391   1.069
 1437SOL    HW2 4267   1.915   2.405   1.221
 1438SOL     OW 4268   2.086   2.393   1.728
 1438SOL    HW1 4269   2.133   2.336   1.661
 1438SOL    HW2 4270   2.028   2.459   1.681
 1439SOL     OW 4271   3.241   2.798   1.656
 1439SOL    HW1 4272   3.264   2.896   1.658
 1439SOL    HW2 4273   3.239   2.766   1.562
 1440SOL     OW 4274   2.679   2.436   0.362
 1440SOL    HW1 4275   2.689   2.357   0.302
 1440SOL    HW2 4276   2.601   2.491   0.331
 1441SOL     OW 4277   3.527   2.461   1.178
 1441SOL    HW1 4278   3.505   2.402   1.256
 1441SOL    HW2 4279   3.620   2.442   1.146
 1442SOL     OW 4280   2.104   3.412   1.728
 1442SOL    HW1 4281   2.084   3.486   1.792
 1442SOL    HW2 4282   2.107   3.325   1.778
 1443SOL     OW 4283   2.567   2.311   1.255
 1443SOL    HW1 4284   2.511   2.233   1.230
 1443SOL    HW2 4285   2.564   2.379   1.182
 1444SOL     OW 4286   2.782   3.536   1.478
 1444SOL    HW1 4287   2.755   3.507   1.386
 1444SOL    HW2 4288   2.826   3.625   1.473
 1445SOL     OW 4289   2.325   2.358   0.194
 1445SOL    HW1 4290   2.387   2.433   0.216
 1445SOL    HW2 4291   2.234   2.395   0.173
 1446SOL     OW 4292   2.005   2.999   1.475
 1446SOL    HW1 4293   2.007   2.952   1.563
 1446SOL    HW2 4294   2.025   2.933   1.402
 1447SOL     OW 4295   3.180   2.908   1.220
 1447SOL    HW1 4296   3.209   2.840   1.153
 1447SOL    HW2 4297   3.111   2.968   1.180
 1448SOL     OW 4298   3.171   2.715   0.300
 1448SOL    HW1 4299   3.094   2.686   0.358
 1448SOL    HW2 4300   3.148   2.701   0.204
 1449SOL     OW 4301   3.610   3.603   1.133
 1449SOL    HW1 4302   3.690   3.636   1.083
 1449SOL    HW2 4303   3.599   3.505   1.118
 1450SOL     OW 4304   3.105   3.598   1.107
 1450SOL    HW1 4305   3.193   3.622   1.066
 1450SOL    HW2 4306   3.105   3.500   1.130
 1451SOL     OW 4307   1.948   3.127   1.012
 1451SOL    HW1 4308   1.932   3.142   1.109
 1451SOL    HW2 4309   1.874   3.070   0.975
 1452SOL     OW 4310   2.544   3.525   1.727
 1452SOL    HW1 4311   2.472   3.593   1.714
 1452SOL    HW2 4312   2.615   3.537   1.658
 1453SOL     OW 4313   2.766   1.953   0.105
 1453SOL    HW1 4314   2.803   1.952   0.012
 1453SOL    HW2 4315   2.827   1.901   0.165
 1454SOL     OW 4316   3.556   1.994   0.494
 1454SOL    HW1 4317   3.640   1.986   0.441
 1454SOL    HW2 4318   3.543   1.911   0.549
 1455SOL     OW 4319   3.255   3.434   0.483
 1455SOL    HW1 4320   3.323   3.462   0.415
 1455SOL    HW2 4321   3.205   3.514   0.515
 1456SOL     OW 4322   2.012   3.659   1.851
 1456SOL    HW1 4323   1.959   3.590   1.901
 1456SOL    HW2 4324   2.048   3.727   1.915
 1457SOL     OW 4325   3.143   2.789   0.666
 1457SOL    HW1 4326   3.218   2.724   0.682
 1457SOL    HW2 4327   3.177   2.866   0.613
 1458SOL     OW 4328   2.670   3.139   1.427
 1458SOL    HW1 4329   2.640   3.180   1.513
 1458SOL    HW2 4330   2.602   3.156   1.356
 1459SOL     OW 4331   2.531   3.478   0.170
 1459SOL    HW1 4332   2.545   3.504   0.074
 1459SOL    HW2 4333   2.473   3.398   0.175
 1460SOL     OW 4334   3.483   3.604   1.388
 1460SOL    HW1 4335   3.534   3.601   1.302
 1460SOL    HW2 4336   3.472   3.699   1.417
 1461SOL     OW 4337   3.720   2.019   0.967
 1461SOL    HW1 4338   3.768   1.944   0.921
 1461SOL    HW2 4339   3.629   2.031   0.926
 1462SOL     OW 4340   2.120   2.178   0.717
 1462SOL    HW1 4341   2.031   2.215   0.689
 1462SOL    HW2 4342   2.121   2.166   0.816
 1463SOL     OW 4343   3.069   3.467   0.028
 1463SOL    HW1 4344   3.063   3.373   0.061
 1463SOL    HW2 4345   3.014   3.477  -0.055
 1464SOL     OW 4346   2.686   2.871   1.377
 1464SOL    HW1 4347   2.735   2.856   1.291
 1464SOL    HW2 4348   2.684   2.969   1.397
 1465SOL     OW 4349   2.786   2.778   0.292
 1465SOL    HW1 4350   2.841   2.805   0.213
 1465SOL    HW2 4351   2.831   2.703   0.340
 1466SOL     OW 4352   3.356   3.480   0.045
 1466SOL    HW1 4353   3.256   3.479   0.042
 1466SOL    HW2 4354   3.392   3.493  -0.048
 1467SOL     OW 4355   2.228   3.164   1.487
 1467SOL    HW1 4356   2.219   3.245   1.430
 1467SOL    HW2 4357   2.149   3.105   1.475
 1468SOL     OW 4358   3.497   3.154   1.289
 1468SOL    HW1 4359   3.546   3.127   1.372
 1468SOL    HW2 4360   3.425   3.220   1.312
 1469SOL     OW 4361   2.920   2.968   0.712
 1469SOL    HW1 4362   2.844   2.918   0.753
 1469SOL    HW2 4363   2.987   2.903   0.677
 1470SOL     OW 4364   2.884   2.101   0.967
 1470SOL    HW1 4365   2.880   2.057   0.877
 1470SOL    HW2 4366   2.881   2.032   1.039
 1471SOL     OW 4367   2.467   3.347   0.480
 1471SOL    HW1 4368   2.513   3.294   0.409
 1471SOL    HW2 4369   2.394   3.401   0.438
 1472SOL     OW 4370   3.603   2.259   1.382
 1472SOL    HW1 4371   3.678   2.326   1.381
 1472SOL    HW2 4372   3.627   2.181   1.324
 1473SOL     OW 4373   2.128   3.201   0.295
 1473SOL    HW1 4374   2.040   3.200   0.249
 1473SOL    HW2 4375   2.118   3.244   0.385
 1474SOL     OW 4376   1.976   2.894   1.728
 1474SOL    HW1 4377   1.894   2.863   1.777
 1474SOL    HW2 4378   2.056   2.849   1.767
 1475SOL     OW 4379   2.547   2.061   1.500
 1475SOL    HW1 4380   2.633   2.039   1.456
 1475SOL    HW2 4381   2.564   2.092   1.593
 1476SOL     OW 4382   1.943   2.205   3.832
 1476SOL    HW1 4383   1.844   2.188   3.840
 1476SOL    HW2 4384   1.958   2.283   3.772
 1477SOL     OW 4385   3.285   2.719   1.397
 1477SOL    HW1 4386   3.230   2.783   1.343
 1477SOL    HW2 4387   3.379   2.719   1.363
 1478SOL     OW 4388   1.928   2.015   0.304
 1478SOL    HW1 4389   1.915   2.105   0.263
 1478SOL    HW2 4390   2.015   1.976   0.273
 1479SOL     OW 4391   3.047   3.206   0.121
 1479SOL    HW1 4392   2.953   3.176   0.108
 1479SOL    HW2 4393   3.072   3.200   0.217
 1480SOL     OW 4394   2.485   2.692   1.433
 1480SOL    HW1 4395   2.542   2.773   1.418
 1480SOL    HW2 4396   2.543   2.611   1.443
 1481SOL     OW 4397   3.352   3.638   0.988
 1481SOL    HW1 4398   3.374   3.680   0.899
 1481SOL    HW2 4399   3.436   3.625   1.040
 1482SOL     OW 4400   2.584   2.420   1.705
 1482SOL    HW1 4401   2.628   2.489   1.764
 1482SOL    HW2 4402   2.607   2.329   1.738
 1483SOL     OW 4403   3.334   3.061   1.636
 1483SOL    HW1 4404   3.319   3.074   1.734
 1483SOL    HW2 4405   3.431   3.075   1.615
 1484SOL     OW 4406   2.249   3.611   1.575
 1484SOL    HW1 4407   2.162   3.658   1.558
 1484SOL    HW2 4408   2.231   3.521   1.616
 1485SOL     OW 4409   3.524   2.739   1.255
 1485SOL    HW1 4410   3.528   2.649   1.212
 1485SOL    HW2 4411   3.518   2.810   1.184
 1486SOL     OW 4412   3.081   2.177   0.461
 1486SOL    HW1 4413   3.147   2.102   0.451
 1486SOL    HW2 4414   3.107   2.233   0.540
 1487SOL     OW 4415   2.449   2.600   0.668
 1487SOL    HW1 4416   2.491   2.690   0.657
 1487SOL    HW2 4417   2.379   2.586   0.598
 1488SOL     OW 4418   3.625   2.228   1.659
 1488SOL    HW1 4419   3.617   2.240   1.560
 1488SOL    HW2 4420   3.552   2.168   1.691
 1489SOL     OW 4421   3.603   2.802   1.508
 1489SOL    HW1 4422   3.594   2.900   1.524
 1489SOL    HW2 4423   3.588   2.781   1.412
 1490SOL     OW 4424   2.737   3.222   0.026
 1490SOL    HW1 4425   2.688   3.232   0.113
 1490SOL    HW2 4426   2.737   3.310  -0.022
 1491SOL     OW 4427   2.526   3.658   0.940
 1491SOL    HW1 4428   2.518   3.757   0.932
 1491SOL    HW2 4429   2.622   3.631   0.928
 1492SOL     OW 4430   2.730   2.832   0.857
 1492SOL    HW1 4431   2.781   2.754   0.893
 1492SOL    HW2 4432   2.689   2.883   0.932
 1493SOL     OW 4433   2.933   2.842   0.071
 1493SOL    HW1 4434   2.917   2.904  -0.006
 1493SOL    HW2 4435   3.015   2.788   0.054
 1494SOL     OW 4436   3.736   3.447   0.866
 1494SOL    HW1 4437   3.674   3.442   0.788
 1494SOL    HW2 4438   3.706   3.383   0.936
 1495SOL     OW 4439   2.091   3.162   1.856
 1495SOL    HW1 4440   2.025   3.096   1.820
 1495SOL    HW2 4441   2.074   3.176   1.954
 1496SOL     OW 4442   1.948   3.094   0.664
 1496SOL    HW1 4443   1.953   3.046   0.752
 1496SOL    HW2 4444   2.016   3.055   0.602
 1497SOL     OW 4445   2.545   3.265   1.633
 1497SOL    HW1 4446   2.462   3.216   1.663
 1497SOL    HW2 4447   2.544   3.358   1.669
 1498SOL     OW 4448   3.671   2.046   1.234
 1498SOL    HW1 4449   3.664   1.950   1.260
 1498SOL    HW2 4450   3.693   2.053   1.137
 1499SOL     OW 4451   2.292   2.292   0.526
 1499SOL    HW1 4452   2.326   2.222   0.463
 1499SOL    HW2 4453   2.240   2.248   0.599
 1500SOL     OW 4454   3.565   3.341   1.086
 1500SOL    HW1 4455   3.481   3.326   1.034
 1500SOL    HW2 4456   3.570   3.275   1.161
 1501SOL     OW 4457   2.198   2.420   1.289
 1501SOL    HW1 4458   2.255   2.362   1.348
 1501SOL    HW2 4459   2.212   2.393   1.193
 1502SOL     OW 4460   2.689   3.441   0.675
 1502SOL    HW1 4461   2.679   3.477   0.582
 1502SOL    HW2 4462   2.613   3.380   0.696
 1503SOL     OW 4463   3.294   2.091   1.118
 1503SOL    HW1 4464   3.318   2.002   1.158
 1503SOL    HW2 4465   3.238   2.143   1.182
 1504SOL     OW 4466   2.872   1.879   1.140
 1504SOL    HW1 4467   2.808   1.815   1.096
 1504SOL    HW2 4468   2.964   1.839   1.141
 1505SOL     OW 4469   2.639   3.191   0.313
 1505SOL    HW1 4470   2.607   3.097   0.326
 1505SOL    HW2 4471   2.723   3.206   0.365
 1506SOL     OW 4472   2.485   3.420   1.290
 1506SOL    HW1 4473   2.484   3.505   1.341
 1506SOL    HW2 4474   2.575   3.407   1.249
 1507SOL     OW 4475   3.212   1.915   0.169
 1507SOL    HW1 4476   3.251   1.854   0.100
 1507SOL    HW2 4477   3.119   1.885   0.191
 1508SOL     OW 4478   3.153   2.326   0.681
 1508SOL    HW1 4479   3.099   2.410   0.684
 1508SOL    HW2 4480   3.152   2.282   0.771
 1509SOL     OW 4481   3.459   2.063   0.886
 1509SOL    HW1 4482   3.398   2.080   0.963
 1509SOL    HW2 4483   3.458   2.142   0.824
 1510SOL     OW 4484   1.906   2.930   0.305
 1510SOL    HW1 4485   2.004   2.929   0.284
 1510SOL    HW2 4486   1.876   2.837   0.328
 1511SOL     OW 4487   2.736   3.532   0.359
 1511SOL    HW1 4488   2.667   3.502   0.293
 1511SOL    HW2 4489   2.711   3.622   0.395
 1512SOL     OW 4490   2.113   2.493   1.981
 1512SOL    HW1 4491   2.024   2.534   2.001
 1512SOL    HW2 4492   2.115   2.461   1.886
 1513SOL     OW 4493   2.063   2.160   2.884
 1513SOL    HW1 4494   2.100   2.119   2.967
 1513SOL    HW2 4495   1.980   2.112   2.856
 1514SOL     OW 4496   2.430   3.155   3.044
 1514SOL    HW1 4497   2.339   3.152   3.001
 1514SOL    HW2 4498   2.447   3.248   3.078
 1515SOL     OW 4499   3.417   3.372   2.567
 1515SOL    HW1 4500   3.378   3.349   2.656
 1515SOL    HW2 4501   3.344   3.378   2.499
 1516SOL     OW 4502   2.993   2.564   2.559
 1516SOL    HW1 4503   3.045   2.648   2.542
 1516SOL    HW2 4504   2.944   2.573   2.645
 1517SOL     OW 4505   3.614   2.477   2.100
 1517SOL    HW1 4506   3.604   2.472   2.001
 1517SOL    HW2 4507   3.587   2.390   2.141
 1518SOL     OW 4508   2.610   3.005   2.901
 1518SOL    HW1 4509   2.541   3.038   2.965
 1518SOL    HW2 4510   2.653   3.083   2.855
 1519SOL     OW 4511   2.721   2.640   3.684
 1519SOL    HW1 4512   2.700   2.715   3.747
 1519SOL    HW2 4513   2.755   2.678   3.598
 1520SOL     OW 4514   2.548   2.862   2.513
 1520SOL    HW1 4515   2.618   2.853   2.583
 1520SOL    HW2 4516   2.472   2.917   2.549
 1521SOL     OW 4517   2.576   3.015   3.694
 1521SOL    HW1 4518   2.620   3.097   3.729
 1521SOL    HW2 4519   2.490   3.039   3.648
 1522SOL     OW 4520   2.189   3.286   2.928
 1522SOL    HW1 4521   2.112   3.242   2.883
 1522SOL    HW2 4522   2.240   3.341   2.862
 1523SOL     OW 4523   3.323   3.362   3.217
 1523SOL    HW1 4524   3.376   3.447   3.223
 1523SOL    HW2 4525   3.254   3.360   3.289
 1524SOL     OW 4526   2.314   2.256   3.348
 1524SOL    HW1 4527   2.394   2.195   3.350
 1524SOL    HW2 4528   2.231   2.202   3.361
 1525SOL     OW 4529   3.461   2.300   2.606
 1525SOL    HW1 4530   3.383   2.321   2.547
 1525SOL    HW2 4531   3.498   2.385   2.643
 1526SOL     OW 4532   2.089   3.587   2.342
 1526SOL    HW1 4533   2.106   3.660   2.408
 1526SOL    HW2 4534   2.165   3.581   2.278
 1527SOL     OW 4535   2.995   3.202   3.562
 1527SOL    HW1 4536   3.053   3.195   3.643
 1527SOL    HW2 4537   2.936   3.122   3.556
 1528SOL     OW 4538   2.093   3.308   2.397
 1528SOL    HW1 4539   2.078   3.407   2.401
 1528SOL    HW2 4540   2.034   3.262   2.463
 1529SOL     OW 4541   2.133   2.953   2.764
 1529SOL    HW1 4542   2.125   2.857   2.791
 1529SOL    HW2 4543   2.069   3.007   2.819
 1530SOL     OW 4544   2.473   3.656   3.289
 1530SOL    HW1 4545   2.388   3.640   3.341
 1530SOL    HW2 4546   2.510   3.746   3.312
 1531SOL     OW 4547   2.448   2.851   2.000
 1531SOL    HW1 4548   2.495   2.899   1.926
 1531SOL    HW2 4549   2.488   2.878   2.087
 1532SOL     OW 4550   3.457   1.986   3.333
 1532SOL    HW1 4551   3.468   2.068   3.276
 1532SOL    HW2 4552   3.447   2.013   3.429
 1533SOL     OW 4553   3.719   3.615   2.192
 1533SOL    HW1 4554   3.728   3.591   2.289
 1533SOL    HW2 4555   3.756   3.707   2.176
 1534SOL     OW 4556   1.896   3.460   1.990
 1534SOL    HW1 4557   1.878   3.363   2.006
 1534SOL    HW2 4558   1.872   3.512   2.071
 1535SOL     OW 4559   3.561   2.783   2.508
 1535SOL    HW1 4560   3.643   2.735   2.476
 1535SOL    HW2 4561   3.525   2.841   2.435
 1536SOL     OW 4562   3.508   2.968   2.297
 1536SOL    HW1 4563   3.591   2.969   2.243
 1536SOL    HW2 4564   3.515   3.036   2.370
 1537SOL     OW 4565   1.985   2.602   3.460
 1537SOL    HW1 4566   2.082   2.626   3.460
 1537SOL    HW2 4567   1.929   2.685   3.455
 1538SOL     OW 4568   2.474   3.252   2.597
 1538SOL    HW1 4569   2.428   3.165   2.609
 1538SOL    HW2 4570   2.462   3.283   2.502
 1539SOL     OW 4571   3.154   3.099   3.287
 1539SOL    HW1 4572   3.181   3.027   3.222
 1539SOL    HW2 4573   3.209   3.091   3.370
 1540SOL     OW 4574   2.695   1.866   2.372
 1540SOL    HW1 4575   2.744   1.950   2.347
 1540SOL    HW2 4576   2.598   1.886   2.384
 1541SOL     OW 4577   2.052   2.822   3.136
 1541SOL    HW1 4578   2.141   2.780   3.121
 1541SOL    HW2 4579   1.983   2.774   3.083
 1542SOL     OW 4580   3.391   2.859   2.066
 1542SOL    HW1 4581   3.317   2.797   2.092
 1542SOL    HW2 4582   3.434   2.897   2.148
 1543SOL     OW 4583   3.033   3.674   3.456
 1543SOL    HW1 4584   3.094   3.723   3.395
 1543SOL    HW2 4585   3.052   3.576   3.450
 1544SOL     OW 4586   2.191   2.110   3.676
 1544SOL    HW1 4587   2.242   2.196   3.672
 1544SOL    HW2 4588   2.102   2.126   3.719
 1545SOL     OW 4589   3.328   3.281   2.812
 1545SOL    HW1 4590   3.260   3.301   2.883
 1545SOL    HW2 4591   3.318   3.186   2.782
 1546SOL     OW 4592   3.536   3.583   2.434
 1546SOL    HW1 4593   3.498   3.575   2.342
 1546SOL    HW2 4594   3.498   3.511   2.492
 1547SOL     OW 4595   2.462   2.592   2.131
 1547SOL    HW1 4596   2.473   2.670   2.070
 1547SOL    HW2 4597   2.395   2.615   2.202
 1548SOL     OW 4598   3.140   2.217   2.794
 1548SOL    HW1 4599   3.046   2.182   2.802
 1548SOL    HW2 4600   3.200   2.164   2.855
 1549SOL     OW 4601   3.450   3.534   2.167
 1549SOL    HW1 4602   3.547   3.557   2.160
 1549SOL    HW2 4603   3.414   3.514   2.075
 1550SOL     OW 4604   2.655   2.476   3.314
 1550SOL    HW1 4605   2.628   2.454   3.408
 1550SOL    HW2 4606   2.615   2.409   3.252
 1551SOL     OW 4607   3.255   2.335   3.549
 1551SOL    HW1 4608   3.274   2.398   3.624
 1551SOL    HW2 4609   3.319   2.259   3.553
 1552SOL     OW 4610   2.818   2.748   3.448
 1552SOL    HW1 4611   2.875   2.676   3.410
 1552SOL    HW2 4612   2.764   2.790   3.374
 1553SOL     OW 4613   2.855   2.269   3.094
 1553SOL    HW1 4614   2.766   2.293   3.132
 1553SOL    HW2 4615   2.842   2.219   3.008
 1554SOL     OW 4616   2.912   2.561   2.288
 1554SOL    HW1 4617   2.933   2.556   2.385
 1554SOL    HW2 4618   2.826   2.512   2.270
 1555SOL     OW 4619   1.942   2.740   2.602
 1555SOL    HW1 4620   1.999   2.669   2.643
 1555SOL    HW2 4621   1.915   2.806   2.673
 1556SOL     OW 4622   1.993   3.706   3.460
 1556SOL    HW1 4623   1.983   3.674   3.554
 1556SOL    HW2 4624   1.907   3.694   3.411
 1557SOL     OW 4625   2.758   2.220   2.062
 1557SOL    HW1 4626   2.803   2.279   1.995
 1557SOL    HW2 4627   2.738   2.131   2.020
 1558SOL     OW 4628   3.571   2.434   3.700
 1558SOL    HW1 4629   3.535   2.513   3.651
 1558SOL    HW2 4630   3.604   2.366   3.635
 1559SOL     OW 4631   3.241   3.006   2.400
 1559SOL    HW1 4632   3.325   2.989   2.348
 1559SOL    HW2 4633   3.184   3.072   2.351
 1560SOL     OW 4634   2.466   2.055   2.784
 1560SOL    HW1 4635   2.447   2.077   2.880
 1560SOL    HW2 4636   2.460   2.138   2.729
 1561SOL     OW 4637   2.860   3.308   2.327
 1561SOL    HW1 4638   2.820   3.387   2.282
 1561SOL    HW2 4639   2.848   3.315   2.426
 1562SOL     OW 4640   2.211   3.682   2.710
 1562SOL    HW1 4641   2.242   3.587   2.717
 1562SOL    HW2 4642   2.288   3.744   2.725
 1563SOL     OW 4643   3.675   2.943   2.734
 1563SOL    HW1 4644   3.628   2.898   2.657
 1563SOL    HW2 4645   3.614   2.945   2.813
 1564SOL     OW 4646   3.086   3.396   3.375
 1564SOL    HW1 4647   3.069   3.326   3.444
 1564SOL    HW2 4648   3.022   3.385   3.299
 1565SOL     OW 4649   2.190   2.820   2.112
 1565SOL    HW1 4650   2.278   2.846   2.073
 1565SOL    HW2 4651   2.155   2.739   2.065
 1566SOL     OW 4652   3.345   2.612   2.588
 1566SOL    HW1 4653   3.335   2.564   2.675
 1566SOL    HW2 4654   3.426   2.670   2.591
 1567SOL     OW 4655   2.328   3.119   3.597
 1567SOL    HW1 4656   2.297   3.127   3.502
 1567SOL    HW2 4657   2.249   3.128   3.658
 1568SOL     OW 4658   2.956   3.654   2.079
 1568SOL    HW1 4659   2.900   3.599   2.142
 1568SOL    HW2 4660   3.005   3.593   2.016
 1569SOL     OW 4661   2.065   2.140   3.365
 1569SOL    HW1 4662   1.988   2.203   3.360
 1569SOL    HW2 4663   2.042   2.063   3.425
 1570SOL     OW 4664   3.509   3.241   1.949
 1570SOL    HW1 4665   3.466   3.330   1.938
 1570SOL    HW2 4666   3.441   3.169   1.934
 1571SOL     OW 4667   2.335   3.614   2.201
 1571SOL    HW1 4668   2.379   3.689   2.252
 1571SOL    HW2 4669   2.398   3.579   2.132
 1572SOL     OW 4670   3.266   1.966   2.297
 1572SOL    HW1 4671   3.252   1.941   2.201
 1572SOL    HW2 4672   3.363   1.979   2.314
 1573SOL     OW 4673   2.113   3.660   3.095
 1573SOL    HW1 4674   2.170   3.592   3.140
 1573SOL    HW2 4675   2.099   3.634   3.000
 1574SOL     OW 4676   2.793   3.594   2.743
 1574SOL    HW1 4677   2.868   3.547   2.789
 1574SOL    HW2 4678   2.758   3.536   2.668
 1575SOL     OW 4679   2.259   2.573   2.338
 1575SOL    HW1 4680   2.273   2.477   2.314
 1575SOL    HW2 4681   2.173   2.583   2.388
 1576SOL     OW 4682   3.397   2.088   3.607
 1576SOL    HW1 4683   3.413   2.107   3.704
 1576SOL    HW2 4684   3.326   2.019   3.597
 1577SOL     OW 4685   2.520   1.977   1.951
 1577SOL    HW1 4686   2.571   1.897   1.984
 1577SOL    HW2 4687   2.453   1.948   1.883
 1578SOL     OW 4688   2.634   2.138   3.617
 1578SOL    HW1 4689   2.712   2.077   3.622
 1578SOL    HW2 4690   2.574   2.122   3.696
 1579SOL     OW 4691   2.736   3.376   3.054
 1579SOL    HW1 4692   2.718   3.340   2.963
 1579SOL    HW2 4693   2.809   3.322   3.097
 1580SOL     OW 4694   3.203   2.450   3.298
 1580SOL    HW1 4695   3.233   2.416   3.387
 1580SOL    HW2 4696   3.236   2.543   3.284
 1581SOL     OW 4697   2.681   3.255   2.802
 1581SOL    HW1 4698   2.771   3.243   2.759
 1581SOL    HW2 4699   2.610   3.257   2.731
 1582SOL     OW 4700   2.788   2.369   2.760
 1582SOL    HW1 4701   2.762   2.362   2.664
 1582SOL    HW2 4702   2.821   2.281   2.792
 1583SOL     OW 4703   2.445   1.952   2.380
 1583SOL    HW1 4704   2.354   1.952   2.422
 1583SOL    HW2 4705   2.449   2.022   2.309
 1584SOL     OW 4706   3.294   3.063   1.907
 1584SOL    HW1 4707   3.325   2.984   1.959
 1584SOL    HW2 4708   3.205   3.093   1.941
 1585SOL     OW 4709   2.812   2.111   2.322
 1585SOL    HW1 4710   2.773   2.151   2.238
 1585SOL    HW2 4711   2.910   2.129   2.325
 1586SOL     OW 4712   2.941   2.544   3.319
 1586SOL    HW1 4713   2.864   2.481   3.322
 1586SOL    HW2 4714   3.027   2.493   3.313
 1587SOL     OW 4715   3.088   3.424   2.652
 1587SOL    HW1 4716   3.104   3.495   2.584
 1587SOL    HW2 4717   3.150   3.437   2.729
 1588SOL     OW 4718   2.331   3.012   2.591
 1588SOL    HW1 4719   2.264   2.993   2.663
 1588SOL    HW2 4720   2.289   2.999   2.501
 1589SOL     OW 4721   3.139   3.665   2.458
 1589SOL    HW1 4722   3.184   3.733   2.400
 1589SOL    HW2 4723   3.068   3.710   2.512
 1590SOL     OW 4724   2.885   2.401   1.887
 1590SOL    HW1 4725   2.839   2.487   1.865
 1590SOL    HW2 4726   2.954   2.418   1.958
 1591SOL     OW 4727   1.954   2.406   3.276
 1591SOL    HW1 4728   2.048   2.403   3.240
 1591SOL    HW2 4729   1.947   2.478   3.344
 1592SOL     OW 4730   2.420   2.089   3.050
 1592SOL    HW1 4731   2.466   2.009   3.089
 1592SOL    HW2 4732   2.323   2.086   3.073
 1593SOL     OW 4733   2.727   2.321   2.497
 1593SOL    HW1 4734   2.686   2.382   2.429
 1593SOL    HW2 4735   2.754   2.235   2.453
 1594SOL     OW 4736   2.880   1.913   2.609
 1594SOL    HW1 4737   2.818   1.915   2.530
 1594SOL    HW2 4738   2.854   1.838   2.670
 1595SOL     OW 4739   3.303   3.024   2.719
 1595SOL    HW1 4740   3.231   2.956   2.730
 1595SOL    HW2 4741   3.325   3.035   2.622
 1596SOL     OW 4742   3.329   2.473   2.842
 1596SOL    HW1 4743   3.274   2.390   2.835
 1596SOL    HW2 4744   3.397   2.463   2.915
 1597SOL     OW 4745   3.745   2.687   2.242
 1597SOL    HW1 4746   3.810   2.632   2.295
 1597SOL    HW2 4747   3.694   2.628   2.179
 1598SOL     OW 4748   2.349   3.281   2.018
 1598SOL    HW1 4749   2.269   3.253   2.072
 1598SOL    HW2 4750   2.343   3.239   1.927
 1599SOL     OW 4751   3.543   3.134   2.503
 1599SOL    HW1 4752   3.632   3.128   2.547
 1599SOL    HW2 4753   3.501   3.222   2.525
 1600SOL     OW 4754   3.253   2.436   1.932
 1600SOL    HW1 4755   3.191   2.414   2.007
 1600SOL    HW2 4756   3.346   2.408   1.957
 1601SOL     OW 4757   2.460   2.129   2.170
 1601SOL    HW1 4758   2.473   2.072   2.088
 1601SOL    HW2 4759   2.405   2.209   2.146
 1602SOL     OW 4760   3.617   3.101   3.423
 1602SOL    HW1 4761   3.701   3.050   3.443
 1602SOL    HW2 4762   3.630   3.197   3.444
 1603SOL     OW 4763   2.918   3.212   3.198
 1603SOL    HW1 4764   2.837   3.183   3.249
 1603SOL    HW2 4765   2.999   3.172   3.241
 1604SOL     OW 4766   3.476   3.487   3.509
 1604SOL    HW1 4767   3.465   3.527   3.418
 1604SOL    HW2 4768   3.562   3.436   3.512
 1605SOL     OW 4769   2.996   3.077   2.968
 1605SOL    HW1 4770   2.937   3.112   3.040
 1605SOL    HW2 4771   2.961   3.107   2.879
 1606SOL     OW 4772   3.493   2.961   2.943
 1606SOL    HW1 4773   3.493   3.029   3.017
 1606SOL    HW2 4774   3.415   2.977   2.883
 1607SOL     OW 4775   2.785   1.957   3.255
 1607SOL    HW1 4776   2.804   1.934   3.160
 1607SOL    HW2 4777   2.865   2.001   3.296
 1608SOL     OW 4778   2.836   2.981   3.588
 1608SOL    HW1 4779   2.741   2.992   3.616
 1608SOL    HW2 4780   2.846   2.897   3.535
 1609SOL     OW 4781   2.574   2.920   2.235
 1609SOL    HW1 4782   2.557   2.904   2.332
 1609SOL    HW2 4783   2.653   2.866   2.206
 1610SOL     OW 4784   2.285   2.676   3.115
 1610SOL    HW1 4785   2.357   2.689   3.183
 1610SOL    HW2 4786   2.244   2.585   3.126
 1611SOL     OW 4787   3.125   2.238   3.140
 1611SOL    HW1 4788   3.162   2.318   3.189
 1611SOL    HW2 4789   3.030   2.256   3.115
 1612SOL     OW 4790   1.934   3.435   3.213
 1612SOL    HW1 4791   1.901   3.510   3.156
 1612SOL    HW2 4792   2.034   3.434   3.211
 1613SOL     OW 4793   2.210   2.977   2.348
 1613SOL    HW1 4794   2.213   3.059   2.291
 1613SOL    HW2 4795   2.207   2.896   2.289
 1614SOL     OW 4796   2.415   2.404   2.718
 1614SOL    HW1 4797   2.430   2.468   2.643
 1614SOL    HW2 4798   2.478   2.424   2.793
 1615SOL     OW 4799   3.108   3.215   2.254
 1615SOL    HW1 4800   3.170   3.288   2.284
 1615SOL    HW2 4801   3.015   3.235   2.284
 1616SOL     OW 4802   3.147   3.322   3.009
 1616SOL    HW1 4803   3.206   3.326   3.089
 1616SOL    HW2 4804   3.091   3.239   3.013
 1617SOL     OW 4805   3.441   2.481   2.347
 1617SOL    HW1 4806   3.391   2.537   2.413
 1617SOL    HW2 4807   3.478   2.540   2.275
 1618SOL     OW 4808   2.211   3.388   3.175
 1618SOL    HW1 4809   2.193   3.345   3.086
 1618SOL    HW2 4810   2.309   3.403   3.186
 1619SOL     OW 4811   2.277   2.608   3.463
 1619SOL    HW1 4812   2.343   2.654   3.404
 1619SOL    HW2 4813   2.309   2.515   3.481
 1620SOL     OW 4814   3.468   2.644   3.552
 1620SOL    HW1 4815   3.377   2.687   3.551
 1620SOL    HW2 4816   3.524   2.684   3.479
 1621SOL     OW 4817   2.866   1.983   3.632
 1621SOL    HW1 4818   2.918   2.065   3.605
 1621SOL    HW2 4819   2.910   1.902   3.594
 1622SOL     OW 4820   2.362   1.900   3.621
 1622SOL    HW1 4821   2.321   1.844   3.549
 1622SOL    HW2 4822   2.302   1.977   3.642
 1623SOL     OW 4823   2.446   2.732   2.896
 1623SOL    HW1 4824   2.479   2.826   2.891
 1623SOL    HW2 4825   2.385   2.722   2.975
 1624SOL     OW 4826   3.215   2.721   2.888
 1624SOL    HW1 4827   3.125   2.713   2.846
 1624SOL    HW2 4828   3.263   2.634   2.882
 1625SOL     OW 4829   3.062   2.390   2.127
 1625SOL    HW1 4830   3.074   2.306   2.181
 1625SOL    HW2 4831   3.017   2.460   2.183
 1626SOL     OW 4832   2.158   2.055   3.117
 1626SOL    HW1 4833   2.122   2.090   3.203
 1626SOL    HW2 4834   2.142   1.957   3.111
 1627SOL     OW 4835   1.909   3.172   3.139
 1627SOL    HW1 4836   1.944   3.112   3.210
 1627SOL    HW2 4837   1.916   3.267   3.169
 1628SOL     OW 4838   2.584   2.491   2.917
 1628SOL    HW1 4839   2.662   2.472   2.857
 1628SOL    HW2 4840   2.550   2.583   2.899
 1629SOL     OW 4841   3.605   2.829   3.711
 1629SOL    HW1 4842   3.560   2.760   3.655
 1629SOL    HW2 4843   3.552   2.844   3.794
 1630SOL     OW 4844   3.487   2.240   2.230
 1630SOL    HW1 4845   3.506   2.164   2.292
 1630SOL    HW2 4846   3.459   2.320   2.282
 1631SOL     OW 4847   2.885   2.617   2.821
 1631SOL    HW1 4848   2.882   2.639   2.918
 1631SOL    HW2 4849   2.858   2.522   2.807
 1632SOL     OW 4850   2.851   3.432   3.592
 1632SOL    HW1 4851   2.825   3.473   3.505
 1632SOL    HW2 4852   2.892   3.342   3.576
 1633SOL     OW 4853   3.727   3.367   3.456
 1633SOL    HW1 4854   3.764   3.389   3.365
 1633SOL    HW2 4855   3.798   3.383   3.525
 1634SOL     OW 4856   2.204   2.774   3.667
 1634SOL    HW1 4857   2.281   2.800   3.725
 1634SOL    HW2 4858   2.235   2.712   3.596
 1635SOL     OW 4859   3.388   2.132   1.993
 1635SOL    HW1 4860   3.319   2.065   2.018
 1635SOL    HW2 4861   3.426   2.173   2.077
 1636SOL     OW 4862   3.153   2.688   1.890
 1636SOL    HW1 4863   3.193   2.597   1.898
 1636SOL    HW2 4864   3.183   2.731   1.805
 1637SOL     OW 4865   2.930   3.198   2.715
 1637SOL    HW1 4866   2.934   3.120   2.653
 1637SOL    HW2 4867   2.992   3.270   2.682
 1638SOL     OW 4868   2.171   2.673   2.808
 1638SOL    HW1 4869   2.268   2.695   2.805
 1638SOL    HW2 4870   2.159   2.578   2.836
 1639SOL     OW 4871   2.193   2.392   2.876
 1639SOL    HW1 4872   2.147   2.304   2.866
 1639SOL    HW2 4873   2.272   2.396   2.814
 1640SOL     OW 4874   2.998   2.231   3.554
 1640SOL    HW1 4875   2.941   2.287   3.614
 1640SOL    HW2 4876   3.090   2.271   3.548
 1641SOL     OW 4877   3.023   2.066   3.336
 1641SOL    HW1 4878   3.011   2.128   3.413
 1641SOL    HW2 4879   3.065   2.116   3.259
 1642SOL     OW 4880   1.864   3.183   2.054
 1642SOL    HW1 4881   1.774   3.201   2.015
 1642SOL    HW2 4882   1.866   3.090   2.091
 1643SOL     OW 4883   1.951   3.662   2.806
 1643SOL    HW1 4884   1.913   3.579   2.763
 1643SOL    HW2 4885   2.043   3.679   2.770
 1644SOL     OW 4886   2.352   3.442   2.763
 1644SOL    HW1 4887   2.420   3.510   2.790
 1644SOL    HW2 4888   2.394   3.373   2.705
 1645SOL     OW 4889   2.840   2.656   3.087
 1645SOL    HW1 4890   2.900   2.633   3.164
 1645SOL    HW2 4891   2.750   2.616   3.101
 1646SOL     OW 4892   1.917   2.455   3.010
 1646SOL    HW1 4893   1.995   2.425   2.955
 1646SOL    HW2 4894   1.936   2.440   3.107
 1647SOL     OW 4895   2.052   2.376   3.613
 1647SOL    HW1 4896   2.098   2.326   3.540
 1647SOL    HW2 4897   2.008   2.457   3.575
 1648SOL     OW 4898   3.243   2.796   3.524
 1648SOL    HW1 4899   3.262   2.894   3.527
 1648SOL    HW2 4900   3.237   2.766   3.429
 1649SOL     OW 4901   2.678   2.435   2.225
 1649SOL    HW1 4902   2.690   2.354   2.167
 1649SOL    HW2 4903   2.604   2.491   2.190
 1650SOL     OW 4904   3.527   2.461   3.039
 1650SOL    HW1 4905   3.506   2.401   3.117
 1650SOL    HW2 4906   3.620   2.442   3.008
 1651SOL     OW 4907   2.101   3.410   3.593
 1651SOL    HW1 4908   2.074   3.485   3.653
 1651SOL    HW2 4909   2.107   3.325   3.645
 1652SOL     OW 4910   2.569   2.313   3.120
 1652SOL    HW1 4911   2.511   2.234   3.099
 1652SOL    HW2 4912   2.564   2.378   3.044
 1653SOL     OW 4913   2.780   3.537   3.342
 1653SOL    HW1 4914   2.756   3.509   3.249
 1653SOL    HW2 4915   2.830   3.624   3.338
 1654SOL     OW 4916   2.324   2.361   2.089
 1654SOL    HW1 4917   2.394   2.432   2.092
 1654SOL    HW2 4918   2.242   2.397   2.045
 1655SOL     OW 4919   2.005   2.999   3.334
 1655SOL    HW1 4920   2.007   2.954   3.424
 1655SOL    HW2 4921   2.024   2.932   3.263
 1656SOL     OW 4922   3.181   2.909   3.083
 1656SOL    HW1 4923   3.209   2.840   3.015
 1656SOL    HW2 4924   3.111   2.968   3.043
 1657SOL     OW 4925   3.174   2.717   2.164
 1657SOL    HW1 4926   3.097   2.689   2.221
 1657SOL    HW2 4927   3.150   2.704   2.067
 1658SOL     OW 4928   3.611   3.604   2.993
 1658SOL    HW1 4929   3.691   3.636   2.943
 1658SOL    HW2 4930   3.599   3.505   2.979
 1659SOL     OW 4931   3.105   3.597   2.968
 1659SOL    HW1 4932   3.194   3.622   2.928
 1659SOL    HW2 4933   3.105   3.500   2.992
 1660SOL     OW 4934   1.949   3.129   2.874
 1660SOL    HW1 4935   1.931   3.142   2.972
 1660SOL    HW2 4936   1.877   3.072   2.835
 1661SOL     OW 4937   2.542   3.521   3.571
 1661SOL    HW1 4938   2.480   3.600   3.572
 1661SOL    HW2 4939   2.614   3.536   3.504
 1662SOL     OW 4940   3.557   1.994   2.357
 1662SOL    HW1 4941   3.642   1.989   2.305
 1662SOL    HW2 4942   3.544   1.910   2.409
 1663SOL     OW 4943   3.256   3.434   2.344
 1663SOL    HW1 4944   3.322   3.462   2.274
 1663SOL    HW2 4945   3.205   3.514   2.376
 1664SOL     OW 4946   1.995   3.624   3.733
 1664SOL    HW1 4947   1.947   3.570   3.802
 1664SOL    HW2 4948   2.037   3.703   3.776
 1665SOL     OW 4949   3.142   2.789   2.528
 1665SOL    HW1 4950   3.217   2.725   2.545
 1665SOL    HW2 4951   3.176   2.867   2.475
 1666SOL     OW 4952   2.670   3.139   3.290
 1666SOL    HW1 4953   2.641   3.178   3.377
 1666SOL    HW2 4954   2.600   3.157   3.221
 1667SOL     OW 4955   2.535   3.478   2.022
 1667SOL    HW1 4956   2.551   3.500   1.925
 1667SOL    HW2 4957   2.473   3.399   2.028
 1668SOL     OW 4958   3.485   3.603   3.248
 1668SOL    HW1 4959   3.535   3.602   3.162
 1668SOL    HW2 4960   3.473   3.697   3.278
 1669SOL     OW 4961   3.720   2.019   2.829
 1669SOL    HW1 4962   3.768   1.944   2.783
 1669SOL    HW2 4963   3.630   2.031   2.788
 1670SOL     OW 4964   3.067   3.470   1.900
 1670SOL    HW1 4965   3.064   3.375   1.933
 1670SOL    HW2 4966   2.998   3.482   1.829
 1671SOL     OW 4967   2.687   2.871   3.241
 1671SOL    HW1 4968   2.736   2.857   3.155
 1671SOL    HW2 4969   2.684   2.969   3.262
 1672SOL     OW 4970   2.781   2.772   2.149
 1672SOL    HW1 4971   2.843   2.808   2.079
 1672SOL    HW2 4972   2.828   2.701   2.201
 1673SOL     OW 4973   3.357   3.482   1.905
 1673SOL    HW1 4974   3.257   3.483   1.898
 1673SOL    HW2 4975   3.396   3.490   1.813
 1674SOL     OW 4976   2.226   3.165   3.353
 1674SOL    HW1 4977   2.219   3.245   3.294
 1674SOL    HW2 4978   2.147   3.105   3.337
 1675SOL     OW 4979   3.496   3.154   3.151
 1675SOL    HW1 4980   3.545   3.127   3.234
 1675SOL    HW2 4981   3.425   3.220   3.174
 1676SOL     OW 4982   2.920   2.967   2.574
 1676SOL    HW1 4983   2.844   2.918   2.615
 1676SOL    HW2 4984   2.988   2.902   2.540
 1677SOL     OW 4985   2.884   2.101   2.829
 1677SOL    HW1 4986   2.879   2.057   2.739
 1677SOL    HW2 4987   2.880   2.032   2.901
 1678SOL     OW 4988   2.465   3.347   2.342
 1678SOL    HW1 4989   2.514   3.295   2.273
 1678SOL    HW2 4990   2.395   3.403   2.298
 1679SOL     OW 4991   3.601   2.259   3.242
 1679SOL    HW1 4992   3.676   2.324   3.244
 1679SOL    HW2 4993   3.625   2.181   3.184
 1680SOL     OW 4994   2.116   3.208   2.152
 1680SOL    HW1 4995   2.020   3.205   2.123
 1680SOL    HW2 4996   2.122   3.248   2.243
 1681SOL     OW 4997   1.977   2.901   3.588
 1681SOL    HW1 4998   1.893   2.871   3.635
 1681SOL    HW2 4999   2.055   2.851   3.626
 1682SOL     OW 5000   2.545   2.057   3.362
 1682SOL    HW1 5001   2.631   2.034   3.316
 1682SOL    HW2 5002   2.565   2.090   3.454
 1683SOL     OW 5003   3.284   2.718   3.259
 1683SOL    HW1 5004   3.229   2.782   3.205
 1683SOL    HW2 5005   3.378   2.719   3.226
 1684SOL     OW 5006   3.043   3.202   1.982
 1684SOL    HW1 5007   2.948   3.173   1.974
 1684SOL    HW2 5008   3.071   3.200   2.078
 1685SOL     OW 5009   2.485   2.692   3.296
 1685SOL    HW1 5010   2.542   2.773   3.281
 1685SOL    HW2 5011   2.544   2.612   3.306
 1686SOL     OW 5012   3.352   3.637   2.849
 1686SOL    HW1 5013   3.373   3.681   2.762
 1686SOL    HW2 5014   3.437   3.625   2.902
 1687SOL     OW 5015   2.587   2.424   3.568
 1687SOL    HW1 5016   2.628   2.493   3.627
 1687SOL    HW2 5017   2.612   2.333   3.601
 1688SOL     OW 5018   3.332   3.062   3.514
 1688SOL    HW1 5019   3.324   3.087   3.611
 1688SOL    HW2 5020   3.427   3.073   3.484
 1689SOL     OW 5021   2.249   3.612   3.435
 1689SOL    HW1 5022   2.160   3.658   3.425
 1689SOL    HW2 5023   2.235   3.521   3.474
 1690SOL     OW 5024   3.524   2.739   3.117
 1690SOL    HW1 5025   3.528   2.649   3.074
 1690SOL    HW2 5026   3.518   2.810   3.046
 1691SOL     OW 5027   3.084   2.180   2.320
 1691SOL    HW1 5028   3.147   2.103   2.311
 1691SOL    HW2 5029   3.109   2.234   2.400
 1692SOL     OW 5030   2.452   2.601   2.528
 1692SOL    HW1 5031   2.499   2.689   2.525
 1692SOL    HW2 5032   2.381   2.598   2.458
 1693SOL     OW 5033   3.620   2.232   3.517
 1693SOL    HW1 5034   3.611   2.240   3.418
 1693SOL    HW2 5035   3.550   2.169   3.552
 1694SOL     OW 5036   3.601   2.798   3.372
 1694SOL    HW1 5037   3.593   2.896   3.387
 1694SOL    HW2 5038   3.586   2.779   3.274
 1695SOL     OW 5039   2.729   3.227   1.903
 1695SOL    HW1 5040   2.685   3.252   1.990
 1695SOL    HW2 5041   2.744   3.310   1.849
 1696SOL     OW 5042   2.526   3.658   2.801
 1696SOL    HW1 5043   2.518   3.758   2.794
 1696SOL    HW2 5044   2.622   3.631   2.790
 1697SOL     OW 5045   2.731   2.832   2.719
 1697SOL    HW1 5046   2.782   2.754   2.756
 1697SOL    HW2 5047   2.690   2.883   2.794
 1698SOL     OW 5048   2.940   2.851   1.946
 1698SOL    HW1 5049   2.913   2.905   1.866
 1698SOL    HW2 5050   3.018   2.793   1.923
 1699SOL     OW 5051   3.736   3.446   2.727
 1699SOL    HW1 5052   3.672   3.441   2.650
 1699SOL    HW2 5053   3.706   3.383   2.799
 1700SOL     OW 5054   2.083   3.163   3.731
 1700SOL    HW1 5055   2.034   3.092   3.682
 1700SOL    HW2 5056   2.043   3.174   3.822
 1701SOL     OW 5057   1.948   3.094   2.525
 1701SOL    HW1 5058   1.946   3.049   2.614
 1701SOL    HW2 5059   2.016   3.051   2.467
 1702SOL     OW 5060   2.549   3.256   3.503
 1702SOL    HW1 5061   2.464   3.212   3.531
 1702SOL    HW2 5062   2.547   3.352   3.531
 1703SOL     OW 5063   3.670   2.045   3.096
 1703SOL    HW1 5064   3.664   1.949   3.121
 1703SOL    HW2 5065   3.693   2.053   2.999
 1704SOL     OW 5066   3.565   3.341   2.948
 1704SOL    HW1 5067   3.481   3.326   2.896
 1704SOL    HW2 5068   3.570   3.275   3.023
 1705SOL     OW 5069   2.197   2.415   3.155
 1705SOL    HW1 5070   2.256   2.359   3.213
 1705SOL    HW2 5071   2.212   2.392   3.059
 1706SOL     OW 5072   2.690   3.441   2.536
 1706SOL    HW1 5073   2.679   3.479   2.445
 1706SOL    HW2 5074   2.613   3.380   2.557
 1707SOL     OW 5075   3.294   2.091   2.980
 1707SOL    HW1 5076   3.317   2.002   3.019
 1707SOL    HW2 5077   3.238   2.143   3.044
 1708SOL     OW 5078   2.872   1.879   3.002
 1708SOL    HW1 5079   2.808   1.816   2.957
 1708SOL    HW2 5080   2.963   1.839   3.003
 1709SOL     OW 5081   2.636   3.192   2.181
 1709SOL    HW1 5082   2.605   3.098   2.189
 1709SOL    HW2 5083   2.721   3.204   2.232
 1710SOL     OW 5084   2.485   3.419   3.151
 1710SOL    HW1 5085   2.483   3.506   3.201
 1710SOL    HW2 5086   2.576   3.406   3.111
 1711SOL     OW 5087   3.214   1.913   2.031
 1711SOL    HW1 5088   3.253   1.850   1.964
 1711SOL    HW2 5089   3.122   1.883   2.056
 1712SOL     OW 5090   3.153   2.326   2.543
 1712SOL    HW1 5091   3.098   2.410   2.546
 1712SOL    HW2 5092   3.152   2.282   2.633
 1713SOL     OW 5093   3.460   2.064   2.748
 1713SOL    HW1 5094   3.398   2.080   2.825
 1713SOL    HW2 5095   3.458   2.142   2.686
 1714SOL     OW 5096   1.908   2.935   2.167
 1714SOL    HW1 5097   2.007   2.935   2.150
 1714SOL    HW2 5098   1.879   2.842   2.191
 1715SOL     OW 5099   2.732   3.529   2.221
 1715SOL    HW1 5100   2.667   3.501   2.150
 1715SOL    HW2 5101   2.710   3.621   2.253
 1716SOL     OW 5102   2.757   3.841   1.990
 1716SOL    HW1 5103   2.798   3.870   1.904
 1716SOL    HW2 5104   2.819   3.776   2.035
 1717SOL     OW 5105   3.795  -0.002   0.184
 1717SOL    HW1 5106   3.757   0.090   0.170
 1717SOL    HW2 5107   3.895   0.004   0.183
   3.83925   3.83925   3.83925
