4QHU_QSPVLIYDDT_UNCAPPED
  103
   43ACE    CH3    1   0.516   2.124   5.253
   43ACE   HH31    2   0.495   2.028   5.268
   43ACE   HH32    3   0.555   2.163   5.336
   43ACE   HH33    4   0.432   2.173   5.230
   43ACE      C    5   0.615   2.137   5.140
   43ACE      O    6   0.656   2.248   5.103
   44VAL      N    7   0.657   2.030   5.080
   44VAL      H    8   0.624   1.941   5.109
   44VAL     CA    9   0.753   2.042   4.970
   44VAL     HA   10   0.741   2.134   4.934
   44VAL     CB   11   0.899   2.015   5.024
   44VAL     HB   12   0.907   2.086   5.094
   44VAL    CG1   13   0.925   1.877   5.089
   44VAL   HG11   14   1.020   1.871   5.119
   44VAL   HG12   15   0.864   1.865   5.168
   44VAL   HG13   16   0.907   1.804   5.022
   44VAL    CG2   17   1.009   2.030   4.916
   44VAL   HG21   18   1.098   2.013   4.956
   44VAL   HG22   19   0.992   1.965   4.842
   44VAL   HG23   20   1.007   2.124   4.879
   44VAL      C   21   0.718   1.946   4.859
   44VAL      O   22   0.701   1.826   4.883
   45LEU      N   23   0.710   1.997   4.738
   45LEU      H   24   0.721   2.096   4.727
   45LEU     CA   25   0.686   1.915   4.620
   45LEU     HA   26   0.606   1.859   4.642
   45LEU     CB   27   0.659   2.005   4.496
   45LEU    HB1   28   0.653   1.944   4.416
   45LEU    HB2   29   0.737   2.066   4.486
   45LEU     CG   30   0.531   2.093   4.496
   45LEU     HG   31   0.535   2.151   4.578
   45LEU    CD1   32   0.527   2.181   4.370
   45LEU   HD11   33   0.445   2.238   4.372
   45LEU   HD12   34   0.608   2.240   4.369
   45LEU   HD13   35   0.527   2.123   4.289
   45LEU    CD2   36   0.402   2.011   4.506
   45LEU   HD21   37   0.323   2.072   4.505
   45LEU   HD22   38   0.396   1.949   4.427
   45LEU   HD23   39   0.402   1.957   4.590
   45LEU      C   40   0.802   1.821   4.595
   45LEU      O   41   0.916   1.866   4.578
   46VAL      N   42   0.776   1.690   4.590
   46VAL      H   43   0.683   1.658   4.604
   46VAL     CA   44   0.883   1.593   4.565
   46VAL     HA   45   0.964   1.650   4.561
   46VAL     CB   46   0.894   1.489   4.680
   46VAL     HB   47   0.964   1.421   4.656
   46VAL    CG1   48   0.938   1.557   4.810
   46VAL   HG11   49   0.945   1.489   4.882
   46VAL   HG12   50   1.027   1.600   4.796
   46VAL   HG13   51   0.871   1.627   4.835
   46VAL    CG2   52   0.763   1.413   4.700
   46VAL   HG21   53   0.773   1.348   4.774
   46VAL   HG22   54   0.690   1.478   4.723
   46VAL   HG23   55   0.739   1.365   4.616
   46VAL      C   56   0.865   1.519   4.432
   46VAL      O   57   0.962   1.474   4.372
   47ILE      N   58   0.740   1.506   4.388
   47ILE      H   59   0.665   1.539   4.446
   47ILE     CA   60   0.707   1.447   4.258
   47ILE     HA   61   0.791   1.457   4.204
   47ILE     CB   62   0.669   1.298   4.269
   47ILE     HB   63   0.595   1.289   4.336
   47ILE    CG2   64   0.618   1.245   4.135
   47ILE   HG21   65   0.594   1.148   4.145
   47ILE   HG22   66   0.538   1.297   4.107
   47ILE   HG23   67   0.690   1.255   4.066
   47ILE    CG1   68   0.787   1.213   4.317
   47ILE   HG11   69   0.752   1.124   4.348
   47ILE   HG12   70   0.831   1.260   4.394
   47ILE     CD   71   0.893   1.187   4.212
   47ILE    HD1   72   0.966   1.132   4.251
   47ILE    HD2   73   0.852   1.139   4.134
   47ILE    HD3   74   0.930   1.274   4.180
   47ILE      C   75   0.591   1.524   4.195
   47ILE      O   76   0.492   1.552   4.262
   48TYR      N   77   0.603   1.558   4.067
   48TYR      H   78   0.689   1.542   4.019
   48TYR     CA   79   0.491   1.620   3.997
   48TYR     HA   80   0.412   1.599   4.054
   48TYR     CB   81   0.514   1.773   3.979
   48TYR    HB1   82   0.598   1.785   3.927
   48TYR    HB2   83   0.524   1.813   4.069
   48TYR     CG   84   0.403   1.850   3.906
   48TYR    CD1   85   0.282   1.880   3.970
   48TYR    HD1   86   0.267   1.849   4.064
   48TYR    CE1   87   0.184   1.952   3.904
   48TYR    HE1   88   0.098   1.973   3.950
   48TYR     CZ   89   0.205   1.995   3.773
   48TYR     OH   90   0.108   2.065   3.708
   48TYR     HH   91   0.139   2.088   3.616
   48TYR    CE2   92   0.325   1.966   3.708
   48TYR    HE2   93   0.340   1.996   3.614
   48TYR    CD2   94   0.424   1.894   3.775
   48TYR    HD2   95   0.510   1.873   3.728
   48TYR      C   96   0.473   1.559   3.860
   48TYR      O   97   0.568   1.538   3.785
   49NME      N   98   0.354   1.527   3.821
   49NME      H   99   0.276   1.543   3.881
   49NME    CH3  100   0.334   1.468   3.689
   49NME   HH31  101   0.237   1.450   3.675
   49NME   HH32  102   0.367   1.531   3.619
   49NME   HH33  103   0.386   1.382   3.683
   7.32100   6.40000  14.48952   0.00000   0.00000   0.00000   0.00000  -1.43092   0.00000
