4QHU_QSPVLIYDDT_UNCAPPED in water
 5107
   43ACE    CH3    1   1.883   2.269   2.797  0.5406 -0.8867 -0.3752
   43ACE   HH31    2   1.944   2.341   2.853 -0.0899 -0.0209 -0.7845
   43ACE   HH32    3   1.776   2.273   2.816  0.5458  1.6388 -0.4354
   43ACE   HH33    4   1.914   2.167   2.820 -1.4841 -1.5688 -0.4793
   43ACE      C    5   1.923   2.301   2.659  0.0074 -0.1653  0.7486
   43ACE      O    6   1.918   2.417   2.616 -0.3276  0.3175  0.2191
   44VAL      N    7   1.976   2.203   2.581  0.8453 -0.4646  0.8321
   44VAL      H    8   1.972   2.109   2.618  0.3768 -1.1161 -0.8016
   44VAL     CA    9   2.050   2.226   2.454 -0.2889  0.5177  0.3780
   44VAL     HA   10   2.040   2.330   2.424  2.5257  0.5556 -0.7711
   44VAL     CB   11   2.198   2.206   2.489 -0.3537  0.1114  0.8026
   44VAL     HB   12   2.216   2.260   2.582  2.2693 -1.1664  1.1433
   44VAL    CG1   13   2.257   2.068   2.527 -0.0754 -0.1612  0.0707
   44VAL   HG11   14   2.349   2.082   2.583 -1.5326  0.4727  2.4621
   44VAL   HG12   15   2.202   2.023   2.610  2.3206 -0.4381  1.5808
   44VAL   HG13   16   2.270   2.006   2.439  0.5052 -1.6560  1.1838
   44VAL    CG2   17   2.294   2.261   2.378 -0.6941  0.5911  0.3492
   44VAL   HG21   18   2.394   2.276   2.421 -0.9497  1.2730  0.7191
   44VAL   HG22   19   2.309   2.198   2.291 -0.0843 -0.5533  1.2537
   44VAL   HG23   20   2.263   2.363   2.353 -0.3013  0.6443  0.0626
   44VAL      C   21   2.008   2.132   2.331 -0.3557 -0.0578 -1.2439
   44VAL      O   22   1.969   2.015   2.353  0.2082  0.5395  0.3014
   45LEU      N   23   2.024   2.178   2.211  0.2077  0.0777 -0.2760
   45LEU      H   24   2.059   2.273   2.202 -1.5267  0.9825  1.7380
   45LEU     CA   25   1.994   2.100   2.095  0.6165  0.7732 -0.1374
   45LEU     HA   26   1.900   2.051   2.117  0.2477  1.2680 -0.5803
   45LEU     CB   27   1.964   2.181   1.965 -0.0581  1.0612  0.0612
   45LEU    HB1   28   1.964   2.112   1.881 -1.7960 -0.4686  1.2217
   45LEU    HB2   29   2.049   2.248   1.953  0.2021  0.8181  0.5371
   45LEU     CG   30   1.832   2.250   1.970  0.5833  0.0746  0.1901
   45LEU     HG   31   1.812   2.285   2.071 -1.7238  1.5156 -0.6836
   45LEU    CD1   32   1.830   2.367   1.872 -0.5685 -0.2932 -1.1354
   45LEU   HD11   33   1.892   2.449   1.908 -1.4253  0.5432 -1.4909
   45LEU   HD12   34   1.873   2.334   1.778 -0.9114 -1.6926 -0.8295
   45LEU   HD13   35   1.727   2.403   1.857 -0.1433  2.3631  1.3982
   45LEU    CD2   36   1.715   2.162   1.935  0.0874  0.1521  0.0782
   45LEU   HD21   37   1.617   2.198   1.965 -0.6829 -0.7689 -1.2254
   45LEU   HD22   38   1.704   2.154   1.827 -1.4247 -0.2063  0.2354
   45LEU   HD23   39   1.726   2.057   1.960 -2.8816 -0.0505  0.8788
   45LEU      C   40   2.115   2.000   2.081  0.4775 -0.0772 -0.0369
   45LEU      O   41   2.232   2.030   2.063  0.6467 -0.2927 -0.0685
   46VAL      N   42   2.078   1.871   2.083  0.4884  0.0581  0.6876
   46VAL      H   43   1.987   1.851   2.121  0.4400 -1.2020 -0.0491
   46VAL     CA   44   2.165   1.757   2.050  0.1869 -0.5593  0.1697
   46VAL     HA   45   2.266   1.798   2.051 -0.2513  0.5636 -0.1815
   46VAL     CB   46   2.179   1.664   2.173 -0.0058  0.0467  0.1422
   46VAL     HB   47   2.254   1.593   2.138  1.6234  1.5068  0.5218
   46VAL    CG1   48   2.227   1.735   2.293  0.2147  0.0438  0.3241
   46VAL   HG11   49   2.284   1.676   2.364 -1.7624  0.7559  2.6117
   46VAL   HG12   50   2.297   1.814   2.265  1.4921 -0.3445  2.2506
   46VAL   HG13   51   2.145   1.785   2.344 -0.3552 -0.8973  0.3541
   46VAL    CG2   52   2.054   1.588   2.211 -0.3475 -0.4623  0.3539
   46VAL   HG21   53   2.019   1.527   2.128 -2.8709 -0.7414  1.5187
   46VAL   HG22   54   2.065   1.535   2.306 -1.1348  0.0925  0.7741
   46VAL   HG23   55   1.968   1.656   2.217 -1.5710 -1.9215 -0.0240
   46VAL      C   56   2.140   1.690   1.914 -0.1160  0.2935  0.3473
   46VAL      O   57   2.241   1.663   1.850 -0.3488 -0.2518  0.2548
   47ILE      N   58   2.016   1.667   1.874 -0.0773  0.0973 -0.4966
   47ILE      H   59   1.942   1.689   1.940 -0.9510 -4.3477  0.3249
   47ILE     CA   60   1.982   1.604   1.745 -0.4025 -0.5131  0.0248
   47ILE     HA   61   2.070   1.592   1.681 -0.3459 -0.4184  0.0854
   47ILE     CB   62   1.932   1.460   1.778  0.3230  0.3490  0.6808
   47ILE     HB   63   1.856   1.459   1.856  0.4215  2.8622  0.8656
   47ILE    CG2   64   1.867   1.404   1.645  0.1546  0.6132 -0.0861
   47ILE   HG21   65   1.856   1.296   1.645 -0.2417  0.6513 -0.1938
   47ILE   HG22   66   1.766   1.445   1.637  0.1009  0.5365  0.1635
   47ILE   HG23   67   1.917   1.428   1.552  0.0578  0.6883 -0.1195
   47ILE    CG1   68   2.043   1.364   1.829  0.5784  0.5764 -0.2122
   47ILE   HG11   69   1.995   1.275   1.870 -0.6842  1.8998  1.3611
   47ILE   HG12   70   2.093   1.415   1.911 -0.0995  0.9225 -0.0016
   47ILE     CD   71   2.155   1.332   1.722 -0.3544 -0.1363 -0.3163
   47ILE    HD1   72   2.246   1.294   1.767  0.8886  2.4237 -0.5153
   47ILE    HD2   73   2.127   1.254   1.652  0.6035 -1.0998  0.3480
   47ILE    HD3   74   2.183   1.423   1.668 -1.4358  1.4881  1.6869
   47ILE      C   75   1.873   1.701   1.685 -0.1340 -0.2335  0.2768
   47ILE      O   76   1.798   1.769   1.762 -0.7967  0.5190 -0.2340
   48TYR      N   77   1.872   1.715   1.551 -0.1295 -0.1031 -0.7070
   48TYR      H   78   1.949   1.677   1.498 -0.1244 -0.4429 -0.4529
   48TYR     CA   79   1.770   1.791   1.475  0.2737 -0.0375  0.4752
   48TYR     HA   80   1.685   1.797   1.544 -0.7779 -1.5350 -0.6215
   48TYR     CB   81   1.818   1.935   1.448  0.1007  0.1806  0.1580
   48TYR    HB1   82   1.908   1.935   1.387  1.4397 -1.4046  2.0047
   48TYR    HB2   83   1.841   1.975   1.546 -3.6644  1.0476  0.8594
   48TYR     CG   84   1.705   2.021   1.388  0.5400  0.3324 -0.0992
   48TYR    CD1   85   1.605   2.083   1.474 -0.6652  0.3861 -0.3032
   48TYR    HD1   86   1.602   2.054   1.578  0.7716  0.2062 -0.2924
   48TYR    CE1   87   1.510   2.160   1.421  0.3064 -0.0751 -0.1655
   48TYR    HE1   88   1.429   2.196   1.483  0.4981 -1.3541  0.8875
   48TYR     CZ   89   1.500   2.170   1.284 -0.2844  1.0307  0.4393
   48TYR     OH   90   1.391   2.231   1.232 -0.6654  0.0814  0.3365
   48TYR     HH   91   1.374   2.199   1.143 -0.5359 -0.5523  0.5324
   48TYR    CE2   92   1.593   2.107   1.195 -0.0120  0.0745  0.0780
   48TYR    HE2   93   1.583   2.110   1.088  2.3816  0.5268 -0.1837
   48TYR    CD2   94   1.698   2.034   1.251  0.0676  0.0066 -0.0108
   48TYR    HD2   95   1.766   1.979   1.188  2.0895  1.7378  0.5529
   48TYR      C   96   1.734   1.720   1.345  0.0896 -0.6774 -0.0103
   48TYR      O   97   1.815   1.658   1.283  0.1127 -0.1696  0.6514
   49NME      N   98   1.609   1.736   1.306 -0.2623  0.1780  0.2324
   49NME      H   99   1.548   1.787   1.369  0.4270  1.3427 -0.0111
   49NME    CH3  100   1.557   1.706   1.174 -0.3617 -0.1564  0.0047
   49NME   HH31  101   1.541   1.599   1.176  0.9757 -0.3601  0.4666
   49NME   HH32  102   1.460   1.751   1.152 -0.0614  1.4861  1.7219
   49NME   HH33  103   1.633   1.725   1.099  0.9088 -3.2587  0.3725
   50SOL     OW  104   0.197   0.387   2.092  0.1837 -0.0966  0.0275
   50SOL    HW1  105   0.219   0.329   2.171  0.4229 -2.1737 -1.4846
   50SOL    HW2  106   0.273   0.450   2.074  0.5688 -0.3287  0.8129
   51SOL     OW  107   2.665   2.890   1.636 -0.7022 -0.4325 -0.3755
   51SOL    HW1  108   2.725   2.915   1.712  0.9313  0.6568 -1.9480
   51SOL    HW2  109   2.636   2.795   1.647 -1.1894 -0.0950  1.9868
   52SOL     OW  110   3.248   3.248   3.189 -0.0132 -0.0651 -0.0006
   52SOL    HW1  111   3.271   3.344   3.203 -0.5895  0.1309 -0.3857
   52SOL    HW2  112   3.286   3.217   3.102  1.0494 -0.4753  0.5939
   53SOL     OW  113   3.461   1.409   1.562 -0.1748 -0.0065 -0.1076
   53SOL    HW1  114   3.518   1.329   1.580  0.4833  0.0739 -1.6313
   53SOL    HW2  115   3.443   1.414   1.464  0.3705  2.0800 -0.1369
   54SOL     OW  116   2.265   2.288   2.870 -0.2775 -0.3573  0.4732
   54SOL    HW1  117   2.251   2.249   2.961  3.0463  0.4454  1.4625
   54SOL    HW2  118   2.363   2.295   2.851 -0.8323 -0.2012 -3.1017
   55SOL     OW  119   3.496   0.985   3.425 -0.4846  0.2595  0.2427
   55SOL    HW1  120   3.420   0.951   3.369  0.1276 -0.0473 -0.4209
   55SOL    HW2  121   3.468   0.988   3.521 -1.1338 -0.4342  0.0837
   56SOL     OW  122   2.164   1.020   2.880  0.2333 -0.0834 -0.8241
   56SOL    HW1  123   2.087   1.049   2.936 -0.2246 -1.1470 -0.8923
   56SOL    HW2  124   2.131   0.988   2.791  0.5302 -2.3080 -0.1904
   57SOL     OW  125  -0.011   1.832   3.490 -0.1270  0.2726 -0.1724
   57SOL    HW1  126   0.061   1.769   3.519  0.6909  1.7066  1.0681
   57SOL    HW2  127  -0.026   1.822   3.392  1.3489 -0.4762 -0.3576
   58SOL     OW  128   0.411   3.541   2.541 -0.4812  0.0515 -0.6072
   58SOL    HW1  129   0.483   3.605   2.514 -1.1158  0.4834 -1.3022
   58SOL    HW2  130   0.325   3.590   2.552 -1.0067 -0.6838 -1.2816
   59SOL     OW  131   0.873   0.821   0.194 -0.3309  0.1877 -0.4329
   59SOL    HW1  132   0.890   0.724   0.208 -1.2639 -0.3580 -2.6674
   59SOL    HW2  133   0.911   0.850   0.106 -0.1335  1.8394  0.1582
   60SOL     OW  134   3.373   0.586   1.875  0.2468 -0.1523  0.1792
   60SOL    HW1  135   3.447   0.607   1.940 -1.0396  2.5288  0.9035
   60SOL    HW2  136   3.301   0.534   1.922  0.1947  0.0905  0.3694
   61SOL     OW  137   2.981   0.549   1.575  1.2223 -0.1692 -0.1050
   61SOL    HW1  138   3.041   0.499   1.637 -0.9579 -2.5489  0.2556
   61SOL    HW2  139   3.003   0.523   1.480  1.6613  0.0840 -0.0790
   62SOL     OW  140   2.447   0.642   1.366  0.6678  0.4735  0.2192
   62SOL    HW1  141   2.356   0.677   1.389  1.0076  0.6055  1.4313
   62SOL    HW2  142   2.471   0.567   1.428  0.5106 -1.0613 -1.4653
   63SOL     OW  143   3.061   0.345   0.032 -0.0226 -0.1589 -0.2668
   63SOL    HW1  144   3.060   0.282  -0.045 -1.0699  0.6548 -0.9379
   63SOL    HW2  145   2.973   0.392   0.038 -0.3693 -0.9663  2.0662
   64SOL     OW  146   1.591   0.191   1.326  0.5006 -0.1440  0.7220
   64SOL    HW1  147   1.647   0.132   1.267  3.0972  0.7803  2.0873
   64SOL    HW2  148   1.564   0.140   1.408  0.6206 -0.1636  0.7495
   65SOL     OW  149   3.121   1.842   0.077  0.2868 -0.3556  0.6065
   65SOL    HW1  150   3.107   1.898  -0.005 -0.3525 -2.0758 -0.5199
   65SOL    HW2  151   3.207   1.868   0.121 -0.7922  2.6815  1.1615
   66SOL     OW  152   0.986   1.915   0.969 -0.5895  0.6596  0.2384
   66SOL    HW1  153   0.930   1.989   1.007  0.3190  1.1169  0.7119
   66SOL    HW2  154   0.969   1.907   0.871 -0.6716  1.5139  0.1803
   67SOL     OW  155   2.524   1.099   0.440  0.2577 -0.3396 -0.0289
   67SOL    HW1  156   2.610   1.053   0.465  0.7576  0.1350 -0.8565
   67SOL    HW2  157   2.459   1.031   0.406 -0.6233 -1.1044  2.8999
   68SOL     OW  158   3.201   1.395   1.742  0.3281 -0.5155  0.2212
   68SOL    HW1  159   3.220   1.320   1.805  0.5124 -0.0885  0.6801
   68SOL    HW2  160   3.266   1.393   1.667  0.6913 -0.4764  0.5331
   69SOL     OW  161   0.312   2.479   2.039 -0.7982  0.0366 -0.2948
   69SOL    HW1  162   0.297   2.394   2.090 -0.7445  0.8335  1.0984
   69SOL    HW2  163   0.402   2.516   2.062 -1.3103  1.0925  0.0695
   70SOL     OW  164   0.711   0.488   0.537 -0.2074 -0.2682 -0.2168
   70SOL    HW1  165   0.634   0.426   0.525  0.0705 -1.1329  2.0722
   70SOL    HW2  166   0.677   0.582   0.547 -1.1167 -0.7656  1.8519
   71SOL     OW  167   1.946   0.025   0.427 -0.3058 -0.7641  0.5477
   71SOL    HW1  168   1.987   0.114   0.448  0.7339 -1.2705  0.7220
   71SOL    HW2  169   1.915  -0.019   0.511 -1.8118 -0.1255  0.3650
   72SOL     OW  170   3.536   1.256   3.548  0.5331  0.1133 -0.3017
   72SOL    HW1  171   3.549   1.191   3.473 -0.6440  0.5918 -0.9627
   72SOL    HW2  172   3.623   1.275   3.592  0.9323 -1.8097 -0.1564
   73SOL     OW  173   1.100   2.400   3.603  0.2981 -0.0115  1.0310
   73SOL    HW1  174   1.165   2.335   3.563 -0.0970  0.3674 -0.2549
   73SOL    HW2  175   1.061   2.360   3.686  0.5802 -1.1337  0.6431
   74SOL     OW  176   1.232   0.777   0.565  0.0368  0.2198  0.2063
   74SOL    HW1  177   1.215   0.813   0.657  0.7276 -1.5975  1.0839
   74SOL    HW2  178   1.330   0.779   0.546  0.0799 -1.1124  0.2532
   75SOL     OW  179   0.326   3.436   1.058 -0.1540  0.0328 -0.2614
   75SOL    HW1  180   0.270   3.515   1.081  0.0753  0.3949 -0.9250
   75SOL    HW2  181   0.300   3.359   1.116  0.9240  1.1084  1.7360
   76SOL     OW  182   2.033   1.119   0.362  0.3321 -0.3344 -0.3785
   76SOL    HW1  183   1.936   1.096   0.371 -0.0820  1.2442 -0.6025
   76SOL    HW2  184   2.070   1.074   0.281 -0.7227  0.5838 -1.4060
   77SOL     OW  185   0.575   3.353   0.984  0.0813  0.1336  0.0870
   77SOL    HW1  186   0.480   3.376   1.004 -0.5279 -1.5770 -0.6359
   77SOL    HW2  187   0.603   3.399   0.899 -0.4937 -0.2656 -0.3268
   78SOL     OW  188   1.611   0.688   3.365  0.0358  0.4196 -0.2229
   78SOL    HW1  189   1.532   0.647   3.320  1.6782 -2.9543 -0.3163
   78SOL    HW2  190   1.591   0.702   3.462 -0.7102 -0.2791 -0.2692
   79SOL     OW  191   0.973   1.017   1.669 -0.1446  0.2052  0.0674
   79SOL    HW1  192   0.997   0.982   1.759  0.3828  0.4550  0.0281
   79SOL    HW2  193   1.040   1.086   1.641 -0.1957 -0.0069 -0.5964
   80SOL     OW  194   1.195   1.175   1.592 -0.3115 -0.4219 -0.3484
   80SOL    HW1  195   1.262   1.104   1.568  1.8484  1.1158  0.7110
   80SOL    HW2  196   1.220   1.216   1.680 -2.4950  0.4889 -0.0872
   81SOL     OW  197   3.164   1.436   1.172 -0.5913  0.0725  0.3178
   81SOL    HW1  198   3.198   1.482   1.090  0.0977 -0.9615  0.0035
   81SOL    HW2  199   3.073   1.398   1.154 -0.3038 -0.4380 -0.0882
   82SOL     OW  200   0.669   0.115   0.385  0.3496 -0.1468 -0.2486
   82SOL    HW1  201   0.665   0.149   0.480  0.3387 -1.4735  0.2396
   82SOL    HW2  202   0.579   0.128   0.342  0.2831  0.2342 -0.0014
   83SOL     OW  203   1.239   1.871   1.034 -0.1090 -0.4284 -0.3623
   83SOL    HW1  204   1.144   1.887   1.007  0.3847 -0.8794 -2.4821
   83SOL    HW2  205   1.246   1.874   1.134 -2.3226 -0.3261 -0.1727
   84SOL     OW  206   3.285   0.988   1.673  0.3615 -0.0298 -0.6609
   84SOL    HW1  207   3.369   0.945   1.706  1.2831  1.2806 -1.2268
   84SOL    HW2  208   3.255   1.058   1.739 -0.4485 -0.6745 -0.3282
   85SOL     OW  209   1.346   1.352   0.278 -0.1863  0.1659  0.1791
   85SOL    HW1  210   1.251   1.330   0.258 -0.2642  0.2037  0.5097
   85SOL    HW2  211   1.351   1.433   0.336  0.0683  0.4786 -0.2733
   86SOL     OW  212   2.269   1.287   1.029 -0.1872 -0.2424 -0.0968
   86SOL    HW1  213   2.274   1.315   1.125 -1.2620  1.2070 -0.4380
   86SOL    HW2  214   2.359   1.255   0.999  0.2675 -0.2896  1.2558
   87SOL     OW  215   0.879   2.843   3.455 -0.3250 -0.1081  1.0332
   87SOL    HW1  216   0.875   2.875   3.550 -2.3316 -0.7528  1.1929
   87SOL    HW2  217   0.884   2.743   3.453 -0.3260 -0.1014  0.4463
   88SOL     OW  218   0.630   0.510   1.544  0.3997 -0.4345  0.3732
   88SOL    HW1  219   0.684   0.429   1.524 -1.0778 -1.6001  0.9710
   88SOL    HW2  220   0.669   0.589   1.494  0.5472 -1.9195 -2.0377
   89SOL     OW  221   1.446   0.935   0.308  0.2239  0.3682  0.2112
   89SOL    HW1  222   1.412   0.994   0.381 -2.1214 -1.1953  0.4907
   89SOL    HW2  223   1.503   0.988   0.246  2.7641  1.6922  3.3560
   90SOL     OW  224   2.809   0.506   2.188 -0.6218 -0.2610 -0.4058
   90SOL    HW1  225   2.850   0.464   2.269 -1.0577 -0.1485 -0.1210
   90SOL    HW2  226   2.842   0.600   2.179 -1.3139  0.0516  0.2041
   91SOL     OW  227   2.221   0.585   1.894  0.0755 -0.1820 -0.0690
   91SOL    HW1  228   2.235   0.669   1.947 -0.0683 -0.5825  0.6147
   91SOL    HW2  229   2.293   0.519   1.915 -0.0940 -0.4182 -0.2209
   92SOL     OW  230   0.003   3.820   3.036  0.1993 -0.5259 -0.1924
   92SOL    HW1  231  -0.056   3.756   3.084 -0.7969 -0.1297 -0.8376
   92SOL    HW2  232   0.075   3.853   3.097 -1.5064  0.6092  1.3274
   93SOL     OW  233   3.315   0.022   0.452  0.0176  0.2419 -0.1663
   93SOL    HW1  234   3.331   0.111   0.410  0.1137  0.4487  0.3021
   93SOL    HW2  235   3.376  -0.046   0.411  0.0433  0.4223 -0.4273
   94SOL     OW  236   3.792   0.453   0.170  0.1717 -1.1172  0.2678
   94SOL    HW1  237   3.725   0.396   0.216 -0.8371  0.2974  0.6238
   94SOL    HW2  238   3.842   0.508   0.237 -1.9772  1.6785 -0.2395
   95SOL     OW  239   0.372   1.344   0.972  0.2569  0.5739  0.5806
   95SOL    HW1  240   0.400   1.393   0.889 -0.0166  3.0588  1.8703
   95SOL    HW2  241   0.297   1.281   0.949  1.8150 -0.6716 -1.4775
   96SOL     OW  242   3.481   1.835   1.889 -0.2499  0.1908 -0.5023
   96SOL    HW1  243   3.475   1.743   1.849 -0.1976  0.0184 -0.1256
   96SOL    HW2  244   3.413   1.844   1.962 -0.6550  0.6599 -0.9319
   97SOL     OW  245   3.073   0.431   3.190  0.3349 -0.3484  0.2917
   97SOL    HW1  246   2.979   0.423   3.155 -0.1487 -0.0376  1.4689
   97SOL    HW2  247   3.085   0.366   3.266  0.8374  0.1119  0.6131
   98SOL     OW  248   2.115   1.460   2.699 -0.1659 -0.0517  0.4134
   98SOL    HW1  249   2.150   1.424   2.612  0.5755 -1.5979  1.3153
   98SOL    HW2  250   2.173   1.428   2.774  0.1841  2.5942  1.3670
   99SOL     OW  251   0.394   2.112   1.524  0.2347  0.1514 -0.0363
   99SOL    HW1  252   0.335   2.095   1.603  0.7229  1.0842  0.5406
   99SOL    HW2  253   0.384   2.036   1.459 -0.6962 -0.2887  0.5887
  100SOL     OW  254   0.094   0.245   1.870 -0.2359 -0.5734  0.0077
  100SOL    HW1  255   0.132   0.292   1.949 -0.4564 -0.5274  0.0886
  100SOL    HW2  256   0.148   0.163   1.850 -0.3556 -0.7508  0.3927
  101SOL     OW  257   0.910   0.836   0.655 -0.4114  0.5321  0.3723
  101SOL    HW1  258   0.933   0.846   0.558 -1.1165 -1.0581 -0.0071
  101SOL    HW2  259   0.896   0.926   0.696  0.1766  1.2412 -0.9320
  102SOL     OW  260   1.315   1.874   3.209 -0.5105  0.0443 -0.2474
  102SOL    HW1  261   1.221   1.851   3.237 -0.9354  1.1793 -0.7163
  102SOL    HW2  262   1.327   1.973   3.209  0.7488 -0.0858 -0.0495
  103SOL     OW  263   1.787   0.811   3.738 -0.4055  0.3508 -0.1528
  103SOL    HW1  264   1.886   0.796   3.734 -0.3679  0.4323  0.3622
  103SOL    HW2  265   1.754   0.788   3.830 -1.1582 -1.4753 -0.8289
  104SOL     OW  266   1.364   2.276   1.762  0.2113 -0.0937 -0.5458
  104SOL    HW1  267   1.281   2.270   1.706 -0.1801 -0.0640  0.0231
  104SOL    HW2  268   1.396   2.371   1.764  0.4310 -0.1563 -1.0083
  105SOL     OW  269   1.313   3.718   0.954  0.5904 -0.4250 -0.4008
  105SOL    HW1  270   1.313   3.801   0.897 -0.1977 -0.2692 -0.1931
  105SOL    HW2  271   1.373   3.732   1.033  2.0662 -0.8196 -1.4164
  106SOL     OW  272   2.074   0.830   3.653 -0.3166 -0.4773  0.5690
  106SOL    HW1  273   2.050   0.741   3.615  0.3230 -0.2569 -0.3725
  106SOL    HW2  274   2.110   0.889   3.581 -1.5688  0.8701  0.9961
  107SOL     OW  275   0.140   0.775   3.242  0.3511  0.0605  0.3823
  107SOL    HW1  276   0.062   0.822   3.284  1.4469  2.2614  0.0911
  107SOL    HW2  277   0.225   0.806   3.286  1.0903 -3.0890  1.4629
  108SOL     OW  278   1.410   0.826   1.712 -0.0963 -0.3656  0.2318
  108SOL    HW1  279   1.483   0.800   1.775 -0.3973  0.0056  0.7380
  108SOL    HW2  280   1.344   0.752   1.704  0.7212 -1.0155 -0.8242
  109SOL     OW  281   0.317   3.705   1.819 -0.6659 -0.1690  0.3379
  109SOL    HW1  282   0.275   3.654   1.894  0.3985  1.7189  2.3291
  109SOL    HW2  283   0.404   3.662   1.795 -0.6703 -0.3758  0.6840
  110SOL     OW  284   0.569   2.478   0.381 -0.2417  0.4263 -0.0175
  110SOL    HW1  285   0.624   2.395   0.390  1.6380  1.5707 -0.5057
  110SOL    HW2  286   0.617   2.544   0.324 -2.4182  1.2865 -0.9606
  111SOL     OW  287   0.461   1.487   3.722 -0.1131 -0.7474 -0.0375
  111SOL    HW1  288   0.490   1.401   3.763 -1.0109 -0.3915  1.4074
  111SOL    HW2  289   0.412   1.542   3.790 -2.4372 -0.4791 -1.8011
  112SOL     OW  290   2.344   3.194   3.508 -0.8488 -0.4596 -0.2901
  112SOL    HW1  291   2.352   3.108   3.457  0.7872 -0.9676  0.7469
  112SOL    HW2  292   2.335   3.174   3.605 -1.0924  0.5524 -0.0948
  113SOL     OW  293   0.859   1.619   0.459  0.3594  0.6037 -0.3585
  113SOL    HW1  294   0.790   1.639   0.389 -1.3962 -1.5539  0.6213
  113SOL    HW2  295   0.848   1.682   0.535 -1.8614 -0.7955  0.5864
  114SOL     OW  296   1.254   1.868   1.301  0.1622 -0.0566  0.1045
  114SOL    HW1  297   1.326   1.833   1.360  0.1540  0.7797  0.6327
  114SOL    HW2  298   1.165   1.843   1.339  0.1630 -0.0626  0.1025
  115SOL     OW  299   3.875   0.682   0.583  0.2948 -0.0365  0.5995
  115SOL    HW1  300   3.843   0.772   0.554  2.3455  0.9177  1.1809
  115SOL    HW2  301   3.797   0.629   0.616 -1.3059  0.6975 -1.6916
  116SOL     OW  302   1.131   0.375   0.940  0.4116 -0.0015 -0.3045
  116SOL    HW1  303   1.219   0.329   0.948 -0.1750 -0.9853  0.8051
  116SOL    HW2  304   1.146   0.474   0.933  1.5955 -0.1495 -0.0666
  117SOL     OW  305   3.519   0.329   3.283  0.8594  0.0384  0.2561
  117SOL    HW1  306   3.515   0.249   3.343  2.3805 -1.2538 -1.2667
  117SOL    HW2  307   3.608   0.333   3.238 -1.1448 -1.1340 -4.5248
  118SOL     OW  308   0.631   3.232   2.586  0.3493 -0.3057  0.1432
  118SOL    HW1  309   0.562   3.224   2.514  0.9694 -1.0578 -0.3884
  118SOL    HW2  310   0.632   3.148   2.641 -1.4305  0.9701  2.2766
  119SOL     OW  311   0.622   0.443   1.263 -0.1854 -0.4718 -0.5753
  119SOL    HW1  312   0.620   0.363   1.323 -2.6795 -0.2128 -0.1680
  119SOL    HW2  313   0.710   0.489   1.270  0.1832 -1.4092  1.6431
  120SOL     OW  314   1.000   0.948   1.919  0.4570 -0.3114  0.2245
  120SOL    HW1  315   0.970   1.043   1.904  2.0511  0.0773 -0.7894
  120SOL    HW2  316   0.971   0.918   2.009  0.6203  1.4554  0.9092
  121SOL     OW  317   1.726   2.161   0.116  0.2277  0.0937  0.5732
  121SOL    HW1  318   1.660   2.234   0.131  0.1889  0.1051  0.3552
  121SOL    HW2  319   1.702   2.082   0.172  0.6006  0.4526  1.2492
  122SOL     OW  320   0.981   1.387   0.559 -0.0945 -0.6003 -0.1314
  122SOL    HW1  321   1.072   1.408   0.594  0.5433 -2.3522 -0.5964
  122SOL    HW2  322   0.943   1.468   0.515  1.5094  0.0013 -0.4987
  123SOL     OW  323  -0.013   3.648   0.105  0.6942  0.1573  0.0292
  123SOL    HW1  324   0.061   3.605   0.053 -0.3796 -0.1538 -1.2771
  123SOL    HW2  325  -0.009   3.747   0.092  1.0489  0.1710  0.2131
  124SOL     OW  326   1.634   1.795   3.510 -0.3512  0.5133 -0.1848
  124SOL    HW1  327   1.586   1.735   3.447  1.0643 -1.1809  0.2784
  124SOL    HW2  328   1.567   1.847   3.564 -1.6094 -0.3396 -0.8793
  125SOL     OW  329   3.601   1.554   1.263 -0.1588 -0.1438 -0.6794
  125SOL    HW1  330   3.646   1.533   1.350  2.6573  1.4805 -1.6154
  125SOL    HW2  331   3.554   1.472   1.229 -0.4874 -1.0849  1.8349
  126SOL     OW  332   1.679   0.004   1.120  0.7500 -0.2368 -0.5551
  126SOL    HW1  333   1.584  -0.015   1.146  0.6484 -0.5953 -1.1611
  126SOL    HW2  334   1.679   0.065   1.040  1.0371  0.0529 -0.3346
  127SOL     OW  335   2.535   0.068   1.973  0.1438 -0.3743  0.1847
  127SOL    HW1  336   2.630   0.102   1.972  0.6020 -1.5676  1.0205
  127SOL    HW2  337   2.535  -0.030   1.994 -1.2254 -0.6115 -0.8460
  128SOL     OW  338   1.040   2.268   0.956  0.4604  0.8603 -0.1745
  128SOL    HW1  339   0.953   2.232   0.990  0.7936  0.9414  0.7850
  128SOL    HW2  340   1.048   2.365   0.980  1.1251  0.6754  0.3712
  129SOL     OW  341   3.683   3.549   0.927 -0.1048  0.0072  0.3717
  129SOL    HW1  342   3.746   3.573   1.001  0.6322 -1.1965  0.1543
  129SOL    HW2  343   3.595   3.593   0.943  0.9581  2.3186  0.3235
  130SOL     OW  344   1.502   1.968   0.726 -0.9680 -0.2065 -0.1307
  130SOL    HW1  345   1.478   1.961   0.629 -1.4271 -0.6820  0.0119
  130SOL    HW2  346   1.511   2.064   0.751  1.1110 -0.0808 -1.1078
  131SOL     OW  347   0.365   3.317   0.547 -0.6225 -0.7520 -0.7103
  131SOL    HW1  348   0.455   3.293   0.583 -0.5486 -0.1331 -0.4712
  131SOL    HW2  349   0.313   3.366   0.616 -1.5857 -2.0736 -0.4482
  132SOL     OW  350   3.711   0.891   0.576 -0.2407  0.3384  0.5295
  132SOL    HW1  351   3.741   0.968   0.520 -0.3748 -0.9337 -1.4171
  132SOL    HW2  352   3.619   0.863   0.548  0.1988 -1.1427  0.4344
  133SOL     OW  353   0.663   1.063   1.467 -0.1345 -0.5348  0.0032
  133SOL    HW1  354   0.705   1.073   1.558  0.6901  0.7915 -0.4978
  133SOL    HW2  355   0.581   1.120   1.462 -0.8306 -1.4806  0.2666
  134SOL     OW  356   0.783   1.040   0.796 -0.5196 -0.2478  0.4819
  134SOL    HW1  357   0.829   1.099   0.730  1.2618  2.5210  3.8968
  134SOL    HW2  358   0.686   1.034   0.773 -0.0946  1.0365 -1.9993
  135SOL     OW  359   0.941   1.518   1.889 -0.0963  0.5015  0.1643
  135SOL    HW1  360   0.900   1.580   1.823 -0.5207  1.3482  1.1976
  135SOL    HW2  361   1.040   1.512   1.873  0.0170  1.7879  0.3124
  136SOL     OW  362   1.919   1.309   1.203 -0.0157  0.3420 -0.1734
  136SOL    HW1  363   2.010   1.274   1.178 -0.4708 -1.0010 -0.0141
  136SOL    HW2  364   1.927   1.404   1.231  0.8879  1.1789 -3.0151
  137SOL     OW  365   0.403   0.574   2.367 -0.1511 -0.1231 -0.1689
  137SOL    HW1  366   0.339   0.651   2.369 -1.1828 -0.9710  1.3109
  137SOL    HW2  367   0.466   0.585   2.291 -0.2300  2.2129  0.0513
  138SOL     OW  368   1.756   0.781   0.172  0.9549  0.7489  0.0331
  138SOL    HW1  369   1.728   0.853   0.235  2.9541  0.1037  1.7604
  138SOL    HW2  370   1.843   0.741   0.202  0.3347 -1.8576 -1.2942
  139SOL     OW  371   1.033   2.310   0.393 -0.1829 -0.3621 -0.1396
  139SOL    HW1  372   1.048   2.236   0.458  0.1860 -2.0482 -2.0562
  139SOL    HW2  373   0.937   2.338   0.396  0.0562  0.4185  1.9039
  140SOL     OW  374   2.776   0.928   3.792  0.4810 -0.6451 -0.0883
  140SOL    HW1  375   2.689   0.943   3.746 -0.3957 -3.0239  0.6383
  140SOL    HW2  376   2.760   0.909   3.889  1.9440  0.1977  0.3553
  141SOL     OW  377   1.821   2.452   0.682  0.8207 -0.0228  0.2003
  141SOL    HW1  378   1.721   2.458   0.691  0.7800  0.1050 -0.3390
  141SOL    HW2  379   1.846   2.359   0.655  1.0114 -0.6816  2.4272
  142SOL     OW  380   0.290   0.060   0.949  0.0941 -0.5971  0.0644
  142SOL    HW1  381   0.300  -0.029   0.904  0.7352  0.0101 -1.0228
  142SOL    HW2  382   0.326   0.132   0.890 -1.8626  0.5874  0.2139
  143SOL     OW  383   0.101   0.856   0.995 -0.4608  0.2070 -0.5193
  143SOL    HW1  384   0.181   0.805   0.962 -0.9687  0.0518 -1.5670
  143SOL    HW2  385   0.124   0.905   1.079  0.3224 -0.9568 -0.0361
  144SOL     OW  386   0.691   0.726   1.381  0.8282  0.4886  0.2908
  144SOL    HW1  387   0.618   0.746   1.316  1.6074 -2.3535 -1.6201
  144SOL    HW2  388   0.774   0.774   1.353  0.6204  0.9467  0.4451
  145SOL     OW  389   1.528   0.037   3.395  0.1515  0.0368  0.3921
  145SOL    HW1  390   1.489  -0.023   3.325  2.4319  0.7049 -1.5625
  145SOL    HW2  391   1.456   0.095   3.433 -1.4860 -1.6460 -0.0169
  146SOL     OW  392   1.046   0.203   1.586  0.2589  0.4246 -0.3560
  146SOL    HW1  393   1.105   0.133   1.546 -1.6974 -2.5949  1.6454
  146SOL    HW2  394   1.079   0.227   1.677  0.3584  1.4847 -0.6461
  147SOL     OW  395   1.017   0.966   2.434  0.2752  0.0393  0.1386
  147SOL    HW1  396   0.967   0.952   2.520 -0.1203 -1.0913 -0.2555
  147SOL    HW2  397   0.987   1.050   2.391 -0.3788  0.0087  0.5259
  148SOL     OW  398   0.545   0.358   3.566  0.1857  0.7467 -1.0312
  148SOL    HW1  399   0.498   0.274   3.540  0.7811  0.8647 -2.5778
  148SOL    HW2  400   0.478   0.432   3.577 -0.1520  0.5167 -1.5198
  149SOL     OW  401   2.857   0.847   0.918  0.0299  0.2685  0.2345
  149SOL    HW1  402   2.899   0.920   0.971 -0.2907 -0.4477  1.5222
  149SOL    HW2  403   2.777   0.882   0.871 -1.3861  0.3208  2.5340
  150SOL     OW  404   0.526   0.950   2.369 -0.3970  0.0181  0.4954
  150SOL    HW1  405   0.582   1.022   2.409 -2.1992  1.1208  1.1528
  150SOL    HW2  406   0.471   0.908   2.442 -0.6844 -0.7959 -0.1828
  151SOL     OW  407   3.724   2.471   2.251 -0.2230 -0.3059  0.4140
  151SOL    HW1  408   3.651   2.485   2.318  1.1398 -1.1703  2.1379
  151SOL    HW2  409   3.722   2.377   2.218 -2.1509  0.5931 -2.4122
  152SOL     OW  410   0.233   1.961   3.271 -0.0830 -0.4769  0.2786
  152SOL    HW1  411   0.146   1.914   3.257  0.9211 -2.3847  0.1069
  152SOL    HW2  412   0.276   1.926   3.354  0.9007 -0.1541 -0.0868
  153SOL     OW  413   0.514   0.931   1.080  0.4074 -1.0425 -0.1804
  153SOL    HW1  414   0.514   0.901   0.985 -1.7445 -0.5643 -0.3910
  153SOL    HW2  415   0.504   0.852   1.141  0.7123 -1.2555 -0.4077
  154SOL     OW  416   3.770   2.036   3.678 -0.0543  0.4466  0.1760
  154SOL    HW1  417   3.777   1.958   3.617  1.3310  0.9690 -0.3805
  154SOL    HW2  418   3.679   2.040   3.718 -0.2060 -1.3194  0.0582
  155SOL     OW  419   1.285   1.379   2.510  0.1231  0.0006  0.2016
  155SOL    HW1  420   1.290   1.285   2.544 -0.8063 -0.6940 -1.4844
  155SOL    HW2  421   1.280   1.442   2.588  0.1554 -1.3688  1.3499
  156SOL     OW  422   1.340   2.607   2.946 -0.2076 -0.3307  0.2134
  156SOL    HW1  423   1.278   2.579   2.873 -0.2977 -0.7841  0.4603
  156SOL    HW2  424   1.354   2.706   2.942 -0.6337 -0.2826 -0.0852
  157SOL     OW  425   3.211   1.000   1.209 -0.1018  0.1463 -0.0026
  157SOL    HW1  426   3.210   0.905   1.238 -2.1036  0.4457  1.1125
  157SOL    HW2  427   3.161   1.056   1.276 -1.2367  1.5634 -1.9360
  158SOL     OW  428   0.277   0.858   2.183 -0.0100 -0.7662  0.2681
  158SOL    HW1  429   0.248   0.950   2.157 -0.2339 -1.6465 -3.0774
  158SOL    HW2  430   0.376   0.857   2.197  0.5381 -0.4896 -2.8368
  159SOL     OW  431   1.796   0.362   1.897 -0.1914  0.1886 -0.0985
  159SOL    HW1  432   1.758   0.273   1.873  0.8727 -0.1079 -0.7368
  159SOL    HW2  433   1.893   0.366   1.872  0.0967  1.1017  1.0253
  160SOL     OW  434   1.095   2.937   2.210  0.0450 -0.5037 -0.1731
  160SOL    HW1  435   1.106   3.027   2.253 -1.5954 -0.5619  0.4254
  160SOL    HW2  436   1.155   2.871   2.256  1.1291  0.2296 -0.4986
  161SOL     OW  437   0.536   3.708   2.313 -0.1028 -0.1575 -0.1506
  161SOL    HW1  438   0.557   3.655   2.231 -2.1110  0.8037 -1.3359
  161SOL    HW2  439   0.471   3.780   2.291  0.3110  0.9678  2.0412
  162SOL     OW  440   0.629   3.270   0.615 -0.4151  0.0369 -0.4204
  162SOL    HW1  441   0.724   3.257   0.588 -0.8656 -0.2707 -1.9643
  162SOL    HW2  442   0.593   3.184   0.653  0.0466  0.2967  0.6379
  163SOL     OW  443   2.559   2.092   1.741  0.4761  0.3708 -0.0113
  163SOL    HW1  444   2.545   2.090   1.642 -1.7719 -2.2069  0.2750
  163SOL    HW2  445   2.480   2.135   1.785  1.1338  0.8391  0.7401
  164SOL     OW  446   2.118   3.876   0.764 -0.6503  0.1299 -0.0822
  164SOL    HW1  447   2.034   3.823   0.751 -1.4814  0.9335  1.6954
  164SOL    HW2  448   2.198   3.817   0.746 -1.5590 -1.2633  0.2718
  165SOL     OW  449   0.863   0.213   1.886  0.1385 -0.0528  0.0395
  165SOL    HW1  450   0.893   0.299   1.929 -0.5918 -0.3194  1.1223
  165SOL    HW2  451   0.935   0.144   1.897 -0.1265 -0.1900  1.1036
  166SOL     OW  452   3.684   1.272   1.633 -0.6699  0.0999  0.1820
  166SOL    HW1  453   3.701   1.183   1.675  3.7665  0.6857  0.2022
  166SOL    HW2  454   3.746   1.340   1.673 -1.1082  2.2740 -2.5173
  167SOL     OW  455   0.412   0.288   0.824  0.1420 -0.2548 -0.1307
  167SOL    HW1  456   0.426   0.366   0.763  2.5216 -0.8565 -0.4501
  167SOL    HW2  457   0.451   0.309   0.914 -0.9255 -0.4009  0.3881
  168SOL     OW  458   1.603   0.725   2.233  0.3795  0.4435 -0.4532
  168SOL    HW1  459   1.637   0.636   2.206 -0.5225 -0.1479  0.2931
  168SOL    HW2  460   1.509   0.716   2.267  0.3327  1.6418 -0.2134
  169SOL     OW  461   3.668   0.529   0.676 -0.0417  0.6863  0.1161
  169SOL    HW1  462   3.616   0.511   0.760  2.5936  1.0562  1.9385
  169SOL    HW2  463   3.692   0.442   0.632  1.2467  0.2763  1.5451
  170SOL     OW  464   0.345   0.789   0.514 -0.3587  0.4236  0.1126
  170SOL    HW1  465   0.312   0.786   0.608  1.6697  2.1957  0.9548
  170SOL    HW2  466   0.344   0.883   0.481  0.5238  0.0542 -1.0500
  171SOL     OW  467   0.710   1.686   0.261  0.0958  0.1788 -0.3650
  171SOL    HW1  468   0.620   1.728   0.249 -1.2311 -2.6899 -1.6419
  171SOL    HW2  469   0.741   1.649   0.173  0.7233 -2.1000  0.7301
  172SOL     OW  470   3.715   0.388   1.274 -0.0062 -0.0012 -0.5801
  172SOL    HW1  471   3.714   0.288   1.275  2.9384 -0.1688  2.1362
  172SOL    HW2  472   3.655   0.422   1.346  1.5853 -0.0690  0.8598
  173SOL     OW  473   3.404   1.340   1.300  0.3623 -0.5939 -0.5507
  173SOL    HW1  474   3.353   1.282   1.363 -2.1355 -0.0815 -1.9962
  173SOL    HW2  475   3.341   1.394   1.245  2.5235  1.2454 -1.4080
  174SOL     OW  476   2.661   0.298   3.408 -0.6599  0.2808  0.3462
  174SOL    HW1  477   2.584   0.270   3.351 -0.5937 -0.3042  0.5364
  174SOL    HW2  478   2.674   0.397   3.401 -2.5748  0.7017  1.7102
  175SOL     OW  479   1.746   0.320   0.644  0.0205  0.1097  0.2019
  175SOL    HW1  480   1.828   0.340   0.591 -0.4294 -0.1885 -0.6249
  175SOL    HW2  481   1.675   0.388   0.624 -0.2923 -0.2417  0.0827
  176SOL     OW  482   0.829   1.758   1.228 -0.0539 -0.0486 -0.0909
  176SOL    HW1  483   0.747   1.727   1.181 -1.3604  1.4794  1.0825
  176SOL    HW2  484   0.903   1.771   1.162 -1.7153  1.7095 -1.7365
  177SOL     OW  485   3.379   3.174   1.669 -0.7184  0.1190  0.3464
  177SOL    HW1  486   3.410   3.260   1.709  1.2785  0.0834 -0.9931
  177SOL    HW2  487   3.312   3.192   1.597 -2.7213  0.2986  2.1484
  178SOL     OW  488   0.869   1.222   1.963  0.0586  0.4914  0.3041
  178SOL    HW1  489   0.776   1.186   1.953  0.6605 -0.6273 -1.9618
  178SOL    HW2  490   0.871   1.319   1.937 -0.2526  0.1289 -1.1893
  179SOL     OW  491   0.618   3.036   2.745  0.0872  0.5140  0.6783
  179SOL    HW1  492   0.615   3.033   2.844  1.6216 -0.2582  0.7321
  179SOL    HW2  493   0.671   2.958   2.711 -0.2828  0.8450 -0.7407
  180SOL     OW  494   0.509   0.249   1.714  0.0130  0.3492 -0.0007
  180SOL    HW1  495   0.584   0.185   1.697 -0.6946 -0.0816 -1.6862
  180SOL    HW2  496   0.546   0.335   1.750  1.1612 -0.3420  0.5211
  181SOL     OW  497   1.016   1.537   3.298 -0.3012 -0.3380  0.1933
  181SOL    HW1  498   0.985   1.597   3.224  1.9903  1.3145  0.4855
  181SOL    HW2  499   1.024   1.443   3.262 -0.7516  0.1268 -1.2082
  182SOL     OW  500   0.072   1.504   3.177  0.5456 -0.6217 -0.4577
  182SOL    HW1  501   0.161   1.471   3.205  1.1629  2.0884  1.1655
  182SOL    HW2  502  -0.000   1.451   3.222  1.4061 -1.0174  0.4812
  183SOL     OW  503   0.701   1.064   1.200  0.3439 -1.4135 -0.3173
  183SOL    HW1  504   0.643   1.009   1.140  0.8212 -0.6349 -1.5232
  183SOL    HW2  505   0.681   1.041   1.296 -0.9218 -2.1689 -0.7397
  184SOL     OW  506   0.051   0.428   0.873 -0.0341  0.0099 -0.3533
  184SOL    HW1  507   0.056   0.360   0.945 -1.5987  0.8778  0.6413
  184SOL    HW2  508  -0.009   0.395   0.800  0.8695 -0.5122 -0.8779
  185SOL     OW  509   3.404   0.258   0.373 -0.0399  0.1393 -0.0986
  185SOL    HW1  510   3.388   0.344   0.423  1.8314 -0.8871  2.4605
  185SOL    HW2  511   3.502   0.245   0.360 -0.2863 -1.6542 -0.3735
  186SOL     OW  512   0.219   3.833   1.593  0.1025 -0.2662 -0.0345
  186SOL    HW1  513   0.217   3.769   1.670  0.0287 -0.6310 -0.3381
  186SOL    HW2  514   0.136   3.823   1.538 -0.5248  1.0145  0.6511
  187SOL     OW  515   2.531   0.418   1.553  0.7303  0.1849 -0.3392
  187SOL    HW1  516   2.481   0.383   1.632  1.5505 -0.1976  0.0278
  187SOL    HW2  517   2.534   0.348   1.482  2.1787 -0.4719  0.3081
  188SOL     OW  518   1.453   3.090   0.291 -0.0976  0.2359  0.0665
  188SOL    HW1  519   1.380   3.022   0.285  0.2595 -0.2297  0.8391
  188SOL    HW2  520   1.436   3.163   0.225 -0.2706 -0.8111 -1.0885
  189SOL     OW  521   2.062   0.381   1.825  0.1567 -0.3046  0.0184
  189SOL    HW1  522   2.060   0.406   1.729  1.6777 -0.4427 -0.0749
  189SOL    HW2  523   2.107   0.453   1.878  1.6012 -1.3010  0.2245
  190SOL     OW  524   0.315   0.760   0.811 -0.6553 -0.1446  0.1407
  190SOL    HW1  525   0.402   0.712   0.820 -0.4741  0.1065 -0.2583
  190SOL    HW2  526   0.248   0.699   0.769 -0.5963 -0.2462  0.1931
  191SOL     OW  527   0.239   0.396   1.311 -0.2703 -0.6761 -0.1747
  191SOL    HW1  528   0.180   0.465   1.270 -0.0518  0.3174  1.1058
  191SOL    HW2  529   0.283   0.434   1.393 -1.0954 -2.7063  1.3041
  192SOL     OW  530   3.469   1.539   3.609  0.5666 -0.1744 -0.0523
  192SOL    HW1  531   3.516   1.456   3.641 -1.1079 -1.8350 -1.5899
  192SOL    HW2  532   3.373   1.535   3.637  0.5398  1.4836  0.1726
  193SOL     OW  533   1.634   1.042   1.412 -0.2915  0.5852  0.1062
  193SOL    HW1  534   1.603   1.136   1.416  2.6253  1.7315 -1.1048
  193SOL    HW2  535   1.694   1.030   1.333 -0.3576 -2.2236  0.3833
  194SOL     OW  536   3.651   2.017   0.122  0.3787  0.2688  0.1077
  194SOL    HW1  537   3.650   1.924   0.157  0.7611 -0.3003 -1.3293
  194SOL    HW2  538   3.738   2.035   0.076 -0.4312  0.6576 -1.3393
  195SOL     OW  539   1.357   1.221   1.844 -0.7537 -0.0666  0.4662
  195SOL    HW1  540   1.294   1.288   1.882 -1.4139 -0.4192  0.0195
  195SOL    HW2  541   1.403   1.172   1.919 -2.6293 -1.3080  0.8884
  196SOL     OW  542   1.756   2.692   0.546  0.2420 -0.2175 -0.0418
  196SOL    HW1  543   1.796   2.607   0.579  1.2707  0.4300  0.4245
  196SOL    HW2  544   1.806   2.770   0.583  0.8597  0.5753 -2.3510
  197SOL     OW  545   1.430   1.836   1.533 -0.4676 -0.3967  0.0542
  197SOL    HW1  546   1.437   1.742   1.565  1.3248 -0.5742 -0.7014
  197SOL    HW2  547   1.407   1.896   1.609  1.9573 -1.0273  1.3918
  198SOL     OW  548   0.044   0.051   1.101 -0.2595  0.0453  0.1257
  198SOL    HW1  549  -0.046   0.079   1.066 -0.4348 -1.3088 -0.6066
  198SOL    HW2  550   0.110   0.052   1.026 -0.4426 -2.0787 -0.1457
  199SOL     OW  551   3.375   1.095   2.106 -0.0280  0.4437 -0.3125
  199SOL    HW1  552   3.448   1.161   2.089  0.7181 -0.0208  0.9532
  199SOL    HW2  553   3.410   1.002   2.091 -0.8890  0.2962 -1.4717
  200SOL     OW  554   0.678   2.433   3.130  0.7085  0.4676 -0.1033
  200SOL    HW1  555   0.694   2.339   3.101 -1.5464  0.8112 -2.9034
  200SOL    HW2  556   0.746   2.494   3.089  1.0507  0.2862  0.1895
  201SOL     OW  557   2.505   0.613   3.486  0.8150  0.1856  0.2208
  201SOL    HW1  558   2.602   0.594   3.476  1.0026  0.9722  0.4449
  201SOL    HW2  559   2.452   0.548   3.431  1.4636 -0.2313  0.0796
  202SOL     OW  560   1.424   1.771   0.890  0.4932  1.1462 -0.2722
  202SOL    HW1  561   1.351   1.803   0.950 -0.1757  0.7504 -0.8580
  202SOL    HW2  562   1.441   1.840   0.819  1.6924  1.8804  0.6957
  203SOL     OW  563   0.626   1.340   1.979  0.9372  0.0440 -0.1233
  203SOL    HW1  564   0.664   1.418   2.030 -0.5940  0.3044  0.6800
  203SOL    HW2  565   0.607   1.265   2.042 -0.7644  0.2824 -0.3056
  204SOL     OW  566   1.380   0.224   0.978  0.4234  0.1675 -0.1798
  204SOL    HW1  567   1.478   0.236   0.963  0.1104 -0.2721 -3.5459
  204SOL    HW2  568   1.339   0.184   0.895 -2.4215 -0.8191  1.5678
  205SOL     OW  569   0.943   1.822   0.110  1.1122  0.2571  0.0551
  205SOL    HW1  570   0.947   1.907   0.163  1.2411  0.5107 -0.3528
  205SOL    HW2  571   0.987   1.748   0.162  0.5812  0.3287  0.6129
  206SOL     OW  572   1.054   1.614   0.275  0.6434 -0.3628  0.1665
  206SOL    HW1  573   1.064   1.531   0.221 -0.0025  0.8518 -1.9458
  206SOL    HW2  574   0.982   1.601   0.343 -0.2877 -1.1523 -0.9335
  207SOL     OW  575   1.581   0.538   0.620 -0.2733 -0.2990 -0.0292
  207SOL    HW1  576   1.537   0.614   0.573  1.1737  0.2661 -0.5369
  207SOL    HW2  577   1.584   0.557   0.719  0.4835  0.5265 -0.2049
  208SOL     OW  578   3.786   0.957   3.377  0.7238 -0.2889 -0.2134
  208SOL    HW1  579   3.783   0.989   3.282  0.8306  1.0938  0.2189
  208SOL    HW2  580   3.692   0.946   3.410  0.6578  0.5436 -0.0853
  209SOL     OW  581   1.355   1.152   0.470 -0.4397 -0.0366  0.1972
  209SOL    HW1  582   1.319   1.201   0.549 -0.1207  0.9727 -0.2620
  209SOL    HW2  583   1.367   1.216   0.394 -1.4023 -1.1027 -0.8994
  210SOL     OW  584   0.907   0.368   1.428 -0.4826 -0.4101 -0.0930
  210SOL    HW1  585   0.954   0.296   1.480  1.2130  0.5301 -0.2764
  210SOL    HW2  586   0.930   0.360   1.331 -0.4577  0.2406 -0.1459
  211SOL     OW  587   0.945   0.384   0.581 -0.4004  0.0679 -0.2366
  211SOL    HW1  588   0.863   0.440   0.574  0.3667  1.4774  1.4458
  211SOL    HW2  589   0.933   0.316   0.654 -0.0860  0.2693  0.0052
  212SOL     OW  590   1.301   0.831   3.803 -0.0098  0.3275 -0.7980
  212SOL    HW1  591   1.204   0.815   3.820  0.2739 -0.5710  0.0942
  212SOL    HW2  592   1.327   0.920   3.840  0.0311 -0.5021  1.3236
  213SOL     OW  593   1.033   2.470   1.864  0.0722  0.0280  0.0836
  213SOL    HW1  594   1.064   2.412   1.789 -0.0720  0.3856 -0.2537
  213SOL    HW2  595   1.087   2.554   1.866 -0.2498  0.2371  0.0731
  214SOL     OW  596   2.194   0.672   2.268 -0.2152  0.4118  0.0626
  214SOL    HW1  597   2.202   0.707   2.175 -0.7375 -1.5852 -0.7838
  214SOL    HW2  598   2.283   0.638   2.299 -0.1035  0.8178  0.1917
  215SOL     OW  599   0.535   0.373   2.830 -0.3408 -0.1523 -0.1732
  215SOL    HW1  600   0.475   0.293   2.834 -0.7422  0.1916  1.7670
  215SOL    HW2  601   0.600   0.369   2.906 -0.7188  1.6297  0.2745
  216SOL     OW  602   1.530   1.351   0.091  0.4424 -0.3419 -0.0080
  216SOL    HW1  603   1.602   1.421   0.089  0.5695 -0.4714  0.0519
  216SOL    HW2  604   1.472   1.366   0.171 -1.6270  1.8010 -1.7554
  217SOL     OW  605   0.585   0.936   2.016 -0.2954  0.4511 -0.1887
  217SOL    HW1  606   0.549   0.926   1.924 -2.6319  1.9260  0.4770
  217SOL    HW2  607   0.639   0.855   2.040  0.2131 -0.0422 -2.7331
  218SOL     OW  608   0.936   3.462   1.915 -0.0722  0.3219 -0.7444
  218SOL    HW1  609   0.910   3.493   2.007 -0.4765 -1.6179 -0.1715
  218SOL    HW2  610   0.974   3.540   1.864 -0.3545  1.5720  0.8495
  219SOL     OW  611  -0.022   1.956   0.535 -0.3509  0.5843 -0.0445
  219SOL    HW1  612   0.062   2.008   0.514  0.2678 -0.0753  0.7130
  219SOL    HW2  613  -0.025   1.874   0.477 -1.4807  1.5688 -1.4562
  220SOL     OW  614   3.692   1.045   1.832 -0.3509  0.0605 -0.3836
  220SOL    HW1  615   3.696   0.950   1.862 -0.4382 -0.2610 -1.3797
  220SOL    HW2  616   3.641   1.099   1.899 -0.7958 -0.7021 -0.0986
  221SOL     OW  617   0.352   0.732   1.532  0.1904 -0.0114 -0.1004
  221SOL    HW1  618   0.296   0.720   1.450  1.3774 -2.1381 -0.6550
  221SOL    HW2  619   0.361   0.645   1.580  0.4448  0.9632  1.7064
  222SOL     OW  620   0.893   1.165   3.522  0.7067 -0.2014 -0.0840
  222SOL    HW1  621   0.836   1.099   3.570  0.6459  0.4868  0.8138
  222SOL    HW2  622   0.966   1.117   3.474  0.2761 -0.9698  0.0174
  223SOL     OW  623   1.376   1.016   1.546  0.0293  0.1463  0.3159
  223SOL    HW1  624   1.466   1.052   1.523  0.0285 -0.0720 -0.0208
  223SOL    HW2  625   1.385   0.938   1.608 -0.0021  1.3801  1.9586
  224SOL     OW  626   0.982   1.716   2.347 -0.1268 -0.4829 -0.0810
  224SOL    HW1  627   0.885   1.739   2.358 -0.5951 -2.7833  1.2083
  224SOL    HW2  628   1.037   1.783   2.398 -1.1796 -0.2613  0.8261
  225SOL     OW  629   2.371   1.932   0.560 -0.4555  0.2094 -0.7920
  225SOL    HW1  630   2.358   1.862   0.490 -3.1002 -0.5774  0.3634
  225SOL    HW2  631   2.346   1.895   0.650 -0.2963  2.1593  0.1037
  226SOL     OW  632   3.564   0.136   1.284 -0.0715 -0.1634 -0.0766
  226SOL    HW1  633   3.530   0.195   1.358  2.3201  0.7234  0.4386
  226SOL    HW2  634   3.564   0.041   1.315  0.8768  0.1896  1.1241
  227SOL     OW  635   0.806   3.442   2.574 -0.2587  0.7921  0.2452
  227SOL    HW1  636   0.741   3.367   2.564 -2.3142  2.6835 -1.6372
  227SOL    HW2  637   0.814   3.466   2.671 -1.7223 -0.0813  0.6144
  228SOL     OW  638   1.252   0.826   1.966 -0.4542 -0.3222  0.0026
  228SOL    HW1  639   1.167   0.855   1.923  0.1101  0.7765 -0.4102
  228SOL    HW2  640   1.329   0.869   1.920  0.1690  1.2778  2.3702
  229SOL     OW  641   3.187   1.599   0.927  0.1918 -0.2763  0.5504
  229SOL    HW1  642   3.178   1.698   0.918 -1.4139 -0.4650 -0.2302
  229SOL    HW2  643   3.241   1.563   0.851 -0.7342 -0.1836 -0.1686
  230SOL     OW  644   1.436   1.496   1.542 -0.8901 -0.0944 -0.2368
  230SOL    HW1  645   1.419   1.426   1.472 -1.1949 -0.8110  0.5411
  230SOL    HW2  646   1.506   1.464   1.605 -2.0239 -0.3283  0.9523
  231SOL     OW  647   2.265   3.695   0.972  0.3968  0.1421 -0.1690
  231SOL    HW1  648   2.283   3.618   1.033  2.7815  0.2333 -0.6774
  231SOL    HW2  649   2.267   3.781   1.025 -1.4970 -0.0273  0.2580
  232SOL     OW  650   3.297   0.827   0.797  0.3166  0.4753 -0.2245
  232SOL    HW1  651   3.224   0.762   0.775  0.3111  0.6056 -0.5930
  232SOL    HW2  652   3.344   0.797   0.880  1.0478 -0.6165 -1.0021
  233SOL     OW  653   1.700   0.534   1.722  0.3854  0.2236 -0.4016
  233SOL    HW1  654   1.742   0.467   1.783 -1.2740 -0.4154  0.0965
  233SOL    HW2  655   1.764   0.557   1.648  1.2150 -1.4726 -0.2533
  234SOL     OW  656   1.157   3.267   1.893  0.5987  0.1472 -0.1118
  234SOL    HW1  657   1.117   3.179   1.918 -0.0057  0.4694  0.0642
  234SOL    HW2  658   1.096   3.341   1.920  1.2875  0.6498  0.1111
  235SOL     OW  659   0.765   1.814   3.538  0.1627 -0.1223  0.1142
  235SOL    HW1  660   0.830   1.865   3.595  0.2142 -0.8852  0.7559
  235SOL    HW2  661   0.810   1.732   3.502 -0.6312 -1.0337  1.1470
  236SOL     OW  662   0.519   1.005   0.728 -0.3802  0.1884 -0.2069
  236SOL    HW1  663   0.440   0.947   0.749 -0.3172  0.3209  0.3893
  236SOL    HW2  664   0.488   1.096   0.700 -0.4064  1.1615  2.7177
  237SOL     OW  665   1.057   1.336   1.396  0.5286  0.3440 -0.2611
  237SOL    HW1  666   1.102   1.275   1.461 -1.1181  1.2721  1.8737
  237SOL    HW2  667   0.996   1.283   1.337 -0.2772 -0.2103  1.0328
  238SOL     OW  668   1.044   0.167   3.650 -0.0026  0.6418  0.2038
  238SOL    HW1  669   0.956   0.175   3.696 -0.7613 -0.1311 -1.0605
  238SOL    HW2  670   1.073   0.072   3.651  1.0062  0.9429  0.9171
  239SOL     OW  671   1.872   2.271   0.935 -0.5573  0.2309 -0.7600
  239SOL    HW1  672   1.780   2.237   0.913 -0.7004  0.8504 -1.1151
  239SOL    HW2  673   1.920   2.294   0.851  0.0838 -0.4729 -0.6023
  240SOL     OW  674   3.767   3.585   2.184 -0.7726 -0.2376  0.0431
  240SOL    HW1  675   3.737   3.491   2.175  0.2972 -0.5566 -0.3861
  240SOL    HW2  676   3.714   3.644   2.124 -1.4553 -0.5564  0.3259
  241SOL     OW  677   3.270   1.178   1.472 -0.1328 -0.7151  0.4561
  241SOL    HW1  678   3.288   1.109   1.542  0.3505 -0.7769  0.2698
  241SOL    HW2  679   3.173   1.175   1.447 -0.3733 -0.4746  1.3474
  242SOL     OW  680   3.598   1.229   2.055 -0.1776 -0.1872 -0.2975
  242SOL    HW1  681   3.672   1.183   2.103 -0.1182 -1.0793 -1.2077
  242SOL    HW2  682   3.623   1.325   2.040 -1.0686  0.7474  3.2287
  243SOL     OW  683   3.431   3.084   0.755 -0.9129 -0.0866  0.1321
  243SOL    HW1  684   3.443   3.159   0.690 -0.1138 -0.5697 -0.2943
  243SOL    HW2  685   3.503   3.016   0.742 -0.6192 -0.1146  1.6389
  244SOL     OW  686   0.445   0.370   1.089 -0.5535  0.6830 -0.2723
  244SOL    HW1  687   0.516   0.403   1.150 -0.2316 -0.7823  0.1849
  244SOL    HW2  688   0.361   0.352   1.141 -0.4999  0.1055 -0.3816
  245SOL     OW  689   0.349   0.125   1.895 -0.3642 -0.5421  0.0785
  245SOL    HW1  690   0.406   0.186   1.840 -0.1599  0.2756  1.1666
  245SOL    HW2  691   0.336   0.038   1.846  0.1560  0.0018 -1.0533
  246SOL     OW  692   0.341   1.477   3.224  0.0429 -0.2404 -0.2681
  246SOL    HW1  693   0.363   1.530   3.306  0.0304 -2.2853  1.1440
  246SOL    HW2  694   0.394   1.392   3.224 -0.7364 -0.7746 -1.8574
  247SOL     OW  695   0.685   0.565   0.252 -0.7648  0.1006 -0.1866
  247SOL    HW1  696   0.727   0.555   0.342 -0.8269 -0.9829 -0.2570
  247SOL    HW2  697   0.721   0.494   0.191 -0.8541  0.7159 -0.9637
  248SOL     OW  698   0.121   2.876   1.003 -0.3624 -0.1164  0.2682
  248SOL    HW1  699   0.190   2.805   0.987 -0.3433 -0.3272  1.2273
  248SOL    HW2  700   0.165   2.966   1.005 -0.2238 -0.1817  0.1486
  249SOL     OW  701   3.788   2.762   3.630  0.0385 -0.0840 -0.3895
  249SOL    HW1  702   3.874   2.812   3.644 -0.7801  0.7599  1.9971
  249SOL    HW2  703   3.809   2.669   3.600  1.9642 -0.6425  2.3607
  250SOL     OW  704   3.524   2.182   0.847 -0.2399 -0.0402  0.4379
  250SOL    HW1  705   3.427   2.173   0.870  0.1186 -0.9748  1.7286
  250SOL    HW2  706   3.540   2.270   0.802 -1.4369  0.8044  1.5989
  251SOL     OW  707   1.246   0.412   0.607 -0.0586  0.3939 -0.5106
  251SOL    HW1  708   1.147   0.408   0.597  0.0542 -3.9118 -1.7138
  251SOL    HW2  709   1.290   0.380   0.523  2.1311 -2.5002  1.5477
  252SOL     OW  710   1.334   2.168   0.980  0.5422 -0.1902 -0.3777
  252SOL    HW1  711   1.329   2.071   1.002  0.5483 -0.2857 -0.7827
  252SOL    HW2  712   1.248   2.197   0.937  0.4199  0.0574  0.0357
  253SOL     OW  713   0.910   0.677   1.817  0.3474  0.4535  0.1864
  253SOL    HW1  714   0.964   0.755   1.849  1.1842  0.9551 -2.2237
  253SOL    HW2  715   0.834   0.710   1.761  0.0494 -0.4186  0.0537
  254SOL     OW  716   0.975   0.783   1.337 -0.0023 -0.6225  0.1408
  254SOL    HW1  717   0.967   0.732   1.422  1.5499  1.3623  1.5714
  254SOL    HW2  718   1.061   0.760   1.292  1.3468  1.5547  1.4651
  255SOL     OW  719   0.196   1.063   1.152 -0.1976 -0.0565  0.1143
  255SOL    HW1  720   0.145   1.109   1.225 -0.6804 -1.4295  0.6738
  255SOL    HW2  721   0.289   1.044   1.184 -0.2761 -0.2728  0.2149
  256SOL     OW  722   3.257   0.272   1.436  0.1826  0.4788 -0.3820
  256SOL    HW1  723   3.205   0.301   1.516  1.5625 -0.7194  1.0174
  256SOL    HW2  724   3.251   0.173   1.426  1.4257  0.4141 -0.7179
  257SOL     OW  725   0.127   3.072   2.409  0.0433  0.5426  0.4432
  257SOL    HW1  726   0.195   3.061   2.337  0.2664  1.1969  0.5488
  257SOL    HW2  727   0.067   2.992   2.410 -1.2914  1.4311 -1.8445
  258SOL     OW  728   2.681   3.473   1.825  0.0444 -0.7477  0.4882
  258SOL    HW1  729   2.624   3.554   1.832  1.1462  0.0499  0.5250
  258SOL    HW2  730   2.692   3.433   1.916 -0.3453 -0.8336  0.4995
  259SOL     OW  731   0.346   0.888   3.370  0.4701  0.0541 -0.6118
  259SOL    HW1  732   0.399   0.937   3.301 -0.2590  0.1022 -1.1490
  259SOL    HW2  733   0.408   0.836   3.430  1.2001  1.0791 -0.4572
  260SOL     OW  734   1.266   0.559   1.683  0.0499  0.0958 -0.1913
  260SOL    HW1  735   1.186   0.560   1.622 -0.0217  0.6119 -0.0936
  260SOL    HW2  736   1.247   0.500   1.762 -0.4484  0.6605  0.1132
  261SOL     OW  737   1.382   1.621   2.012 -0.2759 -0.0159 -0.5255
  261SOL    HW1  738   1.425   1.551   2.069 -0.4299  1.0505  0.9641
  261SOL    HW2  739   1.443   1.700   2.005 -0.1041 -0.2629 -2.1840
  262SOL     OW  740   2.137   2.753   2.134 -0.3254  0.3496  0.2418
  262SOL    HW1  741   2.151   2.654   2.138 -0.2912  0.3622  0.4388
  262SOL    HW2  742   2.039   2.772   2.144 -0.4494  0.2814 -0.7873
  263SOL     OW  743   0.863   3.544   2.161  0.0098 -0.8913 -0.3207
  263SOL    HW1  744   0.891   3.589   2.246 -0.2041  1.0746 -1.2558
  263SOL    HW2  745   0.763   3.544   2.154  0.0171 -1.2446 -0.4910
  264SOL     OW  746   0.801   0.372   0.103 -0.2269 -0.3457 -0.6164
  264SOL    HW1  747   0.828   0.289   0.153 -2.4535 -1.5321 -1.2478
  264SOL    HW2  748   0.775   0.347   0.010 -0.5298  1.1550 -0.9478
  265SOL     OW  749   3.108   3.677   3.212  0.6029  0.4808  0.4342
  265SOL    HW1  750   3.146   3.767   3.195  0.9763 -0.0809 -2.1968
  265SOL    HW2  751   3.025   3.665   3.157 -1.2567  0.2795  3.1031
  266SOL     OW  752   1.109   0.417   3.681 -0.6409  0.1816 -0.7716
  266SOL    HW1  753   1.117   0.318   3.678 -1.7867  0.0153  0.7852
  266SOL    HW2  754   1.181   0.455   3.739  0.1257  0.3446 -1.7864
  267SOL     OW  755   0.461   0.124   2.174 -0.3909 -0.6452  0.9105
  267SOL    HW1  756   0.414   0.144   2.087 -1.7773  0.0375  1.7775
  267SOL    HW2  757   0.436   0.194   2.241  0.8301 -1.0576  1.8065
  268SOL     OW  758   1.408   0.455   3.509  0.3771 -0.2378  0.5242
  268SOL    HW1  759   1.357   0.469   3.594 -0.3351 -0.9960  0.2412
  268SOL    HW2  760   1.494   0.505   3.513  0.6104 -0.7023  1.9173
  269SOL     OW  761   1.716   3.182   3.103 -0.2820  0.1046 -0.8730
  269SOL    HW1  762   1.811   3.155   3.120  0.1003  1.4637 -0.6644
  269SOL    HW2  763   1.694   3.167   3.006  0.0582 -0.4690 -0.8658
  270SOL     OW  764   0.701   2.801   2.607  0.2132 -0.3825 -0.1384
  270SOL    HW1  765   0.676   2.782   2.512 -0.4195 -1.5895  0.2642
  270SOL    HW2  766   0.671   2.727   2.666 -1.3939  1.3563  1.3588
  271SOL     OW  767   0.335   1.320   2.242  0.1773 -0.1634 -0.0659
  271SOL    HW1  768   0.417   1.262   2.237 -0.4761 -1.1698  0.4495
  271SOL    HW2  769   0.319   1.347   2.337  0.4027  0.7842 -0.2841
  272SOL     OW  770   1.092   1.827   3.367  0.3080  0.1197 -0.8267
  272SOL    HW1  771   1.061   1.736   3.395  0.1294 -0.3760 -2.5143
  272SOL    HW2  772   1.012   1.888   3.358  0.6048  1.1967  2.5887
  273SOL     OW  773   3.223   0.942   0.041  0.1307 -0.0892 -0.3525
  273SOL    HW1  774   3.135   0.959  -0.004  0.4413  1.8604 -0.3267
  273SOL    HW2  775   3.294   0.927  -0.028  0.0458 -0.2267 -0.4104
  274SOL     OW  776   0.808   0.451   3.382 -0.6034  0.1744 -0.2953
  274SOL    HW1  777   0.757   0.387   3.440  1.0039  0.1835  1.2203
  274SOL    HW2  778   0.900   0.415   3.366 -0.6712  0.6883 -2.0190
  275SOL     OW  779   3.446   1.561   3.325  0.0602  0.2405  0.4833
  275SOL    HW1  780   3.460   1.553   3.423 -2.3197 -1.8873  0.7519
  275SOL    HW2  781   3.422   1.472   3.287 -0.9603  1.3571 -1.6944
  276SOL     OW  782   1.251   0.094   0.772  0.2539  0.5731 -0.0762
  276SOL    HW1  783   1.264   0.106   0.674 -0.8867  0.6372 -0.2225
  276SOL    HW2  784   1.171   0.036   0.789  0.3570  0.6787  0.8217
  277SOL     OW  785   2.536  -0.021   3.684 -0.2446  0.4921 -0.9793
  277SOL    HW1  786   2.534   0.021   3.594  1.5694  2.5506 -0.1436
  277SOL    HW2  787   2.565   0.046   3.752 -2.3734 -0.7429  1.3315
  278SOL     OW  788   2.958   1.154   1.888 -0.0106  0.5010 -0.5076
  278SOL    HW1  789   2.912   1.180   1.973  1.3830 -1.0523  0.7781
  278SOL    HW2  790   2.948   1.228   1.821 -1.9617  1.3570  0.6397
  279SOL     OW  791   3.562   0.887   2.097  0.2137  0.4313  0.2143
  279SOL    HW1  792   3.593   0.814   2.036 -0.4900 -1.2254  1.7322
  279SOL    HW2  793   3.559   0.852   2.191  0.1045  2.5259  1.0408
  280SOL     OW  794   1.011   3.802   3.080 -0.8054  0.1917 -0.3607
  280SOL    HW1  795   0.917   3.768   3.083 -0.3507 -1.1485 -0.5198
  280SOL    HW2  796   1.022   3.875   3.147 -1.6920 -0.3340  0.3847
  281SOL     OW  797   1.497   1.660   3.265  1.2162  0.6649  0.1107
  281SOL    HW1  798   1.544   1.649   3.177  0.3793 -0.4331 -0.2248
  281SOL    HW2  799   1.435   1.738   3.260  0.5587  0.1197 -0.5774
  282SOL     OW  800   0.456   1.246   0.626 -0.0675 -0.0126 -0.0082
  282SOL    HW1  801   0.524   1.236   0.552  0.5081  0.2526  0.4757
  282SOL    HW2  802   0.475   1.329   0.677 -0.1727 -0.4412  0.7395
  283SOL     OW  803   1.111   0.716   3.294  0.0656  0.7679 -0.0352
  283SOL    HW1  804   1.159   0.676   3.372  2.1331  0.8808 -1.1838
  283SOL    HW2  805   1.115   0.816   3.299 -0.2175  0.7793 -0.0297
  284SOL     OW  806   1.735   1.851   0.867 -0.1337 -0.4809  0.2237
  284SOL    HW1  807   1.645   1.892   0.850  0.8499  1.1280 -1.4127
  284SOL    HW2  808   1.745   1.769   0.811  0.2452  0.6195 -1.3718
  285SOL     OW  809   3.623   0.211   2.367  0.7218  0.0421 -0.0479
  285SOL    HW1  810   3.630   0.140   2.296  1.6534  2.2117 -2.2506
  285SOL    HW2  811   3.526   0.228   2.386  0.4597 -0.9025 -0.4461
  286SOL     OW  812   2.861   1.327   0.069  0.4031 -0.5608  0.4836
  286SOL    HW1  813   2.883   1.415   0.112 -1.1887  0.4969 -0.7484
  286SOL    HW2  814   2.775   1.292   0.107  1.1439 -1.7516  1.1446
  287SOL     OW  815   0.478   2.125   2.318  0.5987 -0.5335  0.0891
  287SOL    HW1  816   0.533   2.103   2.399  0.6433  0.2953  0.2979
  287SOL    HW2  817   0.472   2.224   2.309 -2.3752 -0.5186  1.1250
  288SOL     OW  818   1.215   2.423   2.755 -0.2030  0.1032  0.2448
  288SOL    HW1  819   1.276   2.344   2.745  0.1228  0.1748  1.4995
  288SOL    HW2  820   1.140   2.399   2.818  0.1461  0.9324  0.9798
  289SOL     OW  821   3.719   3.692   0.359  0.0175  0.5310 -0.3515
  289SOL    HW1  822   3.767   3.751   0.424  0.0426 -0.8506  0.9521
  289SOL    HW2  823   3.775   3.681   0.277  0.8960  0.7650  0.1954
  290SOL     OW  824   0.581   1.482   2.493  0.3487 -0.1095  0.0671
  290SOL    HW1  825   0.605   1.559   2.434 -0.9824  0.7362  0.5748
  290SOL    HW2  826   0.498   1.438   2.460  0.6073 -0.7756  0.2850
  291SOL     OW  827   1.410   1.144   2.169 -0.2236 -0.3832  1.0687
  291SOL    HW1  828   1.488   1.085   2.149 -0.3702 -0.1287 -0.3989
  291SOL    HW2  829   1.343   1.094   2.224  1.4495 -0.2312  3.4126
  292SOL     OW  830   0.048   1.357   0.685 -0.5099  0.1337  0.4962
  292SOL    HW1  831   0.097   1.332   0.769  0.4313  1.3837  0.3357
  292SOL    HW2  832  -0.049   1.369   0.706 -0.6761 -1.6851  0.9581
  293SOL     OW  833   1.003   2.334   2.960  0.0274  0.1030 -0.0675
  293SOL    HW1  834   0.975   2.258   2.901 -1.8673 -0.3004  1.2262
  293SOL    HW2  835   1.025   2.299   3.051  0.5485  0.9554  0.1427
  294SOL     OW  836   1.765   1.633   2.034  0.0586  0.2872  0.4689
  294SOL    HW1  837   1.723   1.700   1.972  0.4979 -0.5094 -0.7232
  294SOL    HW2  838   1.711   1.549   2.033  1.8578 -0.9521 -1.5045
  295SOL     OW  839   0.357   3.487   2.165 -0.0950 -0.6667 -0.0538
  295SOL    HW1  840   0.318   3.470   2.256  0.2010 -1.5374 -0.0778
  295SOL    HW2  841   0.288   3.530   2.107 -0.3101 -0.1713  0.5605
  296SOL     OW  842   0.299   3.558   2.859 -0.2640  0.2189 -0.2682
  296SOL    HW1  843   0.219   3.520   2.813 -1.5360  0.8819  1.2800
  296SOL    HW2  844   0.340   3.629   2.803 -0.9418  0.0682 -0.9656
  297SOL     OW  845   0.722   1.152   2.455 -0.2045 -0.3878 -0.7386
  297SOL    HW1  846   0.705   1.216   2.530  1.1303 -0.4934 -0.3110
  297SOL    HW2  847   0.794   1.190   2.396  0.2492 -1.2618 -0.7586
  298SOL     OW  848   1.156   2.921   3.382  0.0772 -0.5152  0.5913
  298SOL    HW1  849   1.167   2.827   3.349 -1.4734 -1.3543  2.3461
  298SOL    HW2  850   1.060   2.939   3.401  0.3950  1.3393  0.6422
  299SOL     OW  851   1.050   3.388   2.458 -0.1027 -0.1885 -0.3245
  299SOL    HW1  852   0.961   3.426   2.483 -0.3447  0.1121 -1.5590
  299SOL    HW2  853   1.116   3.406   2.531 -0.5968  1.2410 -0.2075
  300SOL     OW  854   3.640   0.199   1.033 -0.3235  0.4846  0.0688
  300SOL    HW1  855   3.626   0.297   1.017  0.9583  0.8480  1.0382
  300SOL    HW2  856   3.587   0.170   1.112  1.4259  1.0564  1.5143
  301SOL     OW  857   3.655   2.920   0.776  0.0195  0.6124 -0.0000
  301SOL    HW1  858   3.735   2.876   0.735 -0.7025  0.9779 -1.9003
  301SOL    HW2  859   3.634   2.876   0.864  0.7507 -1.2501 -0.7079
  302SOL     OW  860   2.795   0.160   1.980 -0.1962 -0.3162  0.4142
  302SOL    HW1  861   2.815   0.257   1.969 -0.0817 -0.4260 -0.3840
  302SOL    HW2  862   2.881   0.109   1.988 -0.0604 -0.7274 -2.5133
  303SOL     OW  863   1.030   0.463   2.198 -0.3243 -0.2220 -0.1670
  303SOL    HW1  864   0.940   0.447   2.239 -0.2952 -0.7285 -0.2963
  303SOL    HW2  865   1.077   0.536   2.248 -0.1276 -1.0931  0.9751
  304SOL     OW  866   1.109   1.704   2.060 -0.2019 -0.0312  0.2372
  304SOL    HW1  867   1.205   1.676   2.056  0.0398  0.5469  1.6165
  304SOL    HW2  868   1.085   1.728   2.154 -1.1565  1.7409 -0.4157
  305SOL     OW  869   0.123   2.384   2.406  0.1300  0.6647  0.0970
  305SOL    HW1  870   0.037   2.411   2.362  0.0994  0.2829 -0.0835
  305SOL    HW2  871   0.113   2.292   2.444  1.3102 -0.6133 -2.4040
  306SOL     OW  872   0.961   1.107   3.097 -0.6389  0.2236 -0.4488
  306SOL    HW1  873   0.918   1.017   3.091 -0.4913  0.1393 -0.2406
  306SOL    HW2  874   0.998   1.132   3.007 -1.5791  0.5262 -0.7610
  307SOL     OW  875   1.284   2.240   3.476 -0.1737  0.2766 -0.6067
  307SOL    HW1  876   1.252   2.151   3.507 -0.9622  0.1786 -1.6352
  307SOL    HW2  877   1.377   2.256   3.509 -0.3974 -0.4783  0.4408
  308SOL     OW  878   2.455   1.465   2.657 -0.2431 -0.2723 -0.1019
  308SOL    HW1  879   2.444   1.561   2.685  0.6036 -0.2242  0.0936
  308SOL    HW2  880   2.456   1.407   2.739 -1.2166 -0.5072 -0.2439
  309SOL     OW  881   0.671   1.315   2.676 -0.2846 -0.5915  0.0794
  309SOL    HW1  882   0.759   1.348   2.709 -1.2982  0.8481  1.4351
  309SOL    HW2  883   0.628   1.385   2.619 -0.4259 -1.4339 -0.9000
  310SOL     OW  884   3.272   3.361   1.443 -0.0580 -0.2063 -0.2228
  310SOL    HW1  885   3.233   3.415   1.368 -0.2125  1.6060  1.0749
  310SOL    HW2  886   3.345   3.414   1.488 -0.2815 -1.0262  1.1707
  311SOL     OW  887   1.688   1.407   3.008 -0.1187 -0.3381 -0.4745
  311SOL    HW1  888   1.734   1.338   2.954  0.6394 -0.2665  0.0583
  311SOL    HW2  889   1.744   1.491   3.010 -0.7442  0.0863 -0.6384
  312SOL     OW  890   3.247   2.842   3.640 -0.2970 -0.2813  0.0503
  312SOL    HW1  891   3.314   2.768   3.647 -0.3212 -0.2740  0.3492
  312SOL    HW2  892   3.156   2.802   3.626 -0.5706 -0.3842  1.9156
  313SOL     OW  893   3.594   3.725   2.013  0.3924  0.0394  0.4075
  313SOL    HW1  894   3.559   3.781   2.088 -2.2042 -0.1055 -0.5768
  313SOL    HW2  895   3.599   3.781   1.930 -0.6451 -0.7275 -0.2006
  314SOL     OW  896   0.597   0.845   0.128 -0.5612  0.2380  0.5119
  314SOL    HW1  897   0.577   0.773   0.062 -1.7557  0.4688  0.6010
  314SOL    HW2  898   0.694   0.842   0.152 -0.3614 -0.6084 -0.3410
  315SOL     OW  899   2.498   0.264   0.984  0.2247 -0.4014  0.0359
  315SOL    HW1  900   2.416   0.229   0.941 -0.4159 -0.5215  1.2979
  315SOL    HW2  901   2.509   0.361   0.962  0.0203 -0.5062 -0.5374
  316SOL     OW  902   3.683   0.081   1.813  0.9621  0.2991  0.2817
  316SOL    HW1  903   3.764   0.114   1.861  1.5997 -0.6720 -0.1103
  316SOL    HW2  904   3.691   0.103   1.716 -0.0284  1.6873  0.4905
  317SOL     OW  905   2.421   0.157   1.702 -0.1195  0.7623 -0.2702
  317SOL    HW1  906   2.325   0.148   1.730  0.1404 -2.0560  0.0323
  317SOL    HW2  907   2.480   0.138   1.781  0.7198  1.5776 -0.6781
  318SOL     OW  908   0.787   1.705   2.583  0.7335 -0.2862  1.0357
  318SOL    HW1  909   0.733   1.781   2.547  1.8820 -0.2613 -0.7540
  318SOL    HW2  910   0.762   1.621   2.534  0.0587 -0.9392  2.4384
  319SOL     OW  911   1.592   0.652   3.644  0.1715  0.6254  0.3818
  319SOL    HW1  912   1.681   0.698   3.645  1.1844 -1.2189  0.8324
  319SOL    HW2  913   1.579   0.603   3.731 -2.0917  2.2233  1.0418
  320SOL     OW  914   3.677   0.262   0.308  0.0897  0.3305 -0.2289
  320SOL    HW1  915   3.659   0.208   0.225 -1.2365  0.5009 -0.0717
  320SOL    HW2  916   3.745   0.215   0.364 -0.9781 -1.1670 -0.1213
  321SOL     OW  917   1.776   3.361   3.573  0.2054  0.0736  0.2672
  321SOL    HW1  918   1.742   3.307   3.496  1.0886 -0.3248  0.1345
  321SOL    HW2  919   1.841   3.429   3.539 -0.0663  0.4795  0.5618
  322SOL     OW  920   0.378   2.971   2.201 -0.0504  0.1682  0.4472
  322SOL    HW1  921   0.406   2.909   2.274  0.9222  0.9054  0.7197
  322SOL    HW2  922   0.430   3.056   2.207 -0.4106  0.4984 -0.7226
  323SOL     OW  923   1.583   2.461   0.180 -0.2445 -0.3612 -0.2703
  323SOL    HW1  924   1.533   2.510   0.251 -0.7188  1.0505 -1.5164
  323SOL    HW2  925   1.527   2.454   0.098  1.1295  0.1394 -1.2930
  324SOL     OW  926   0.421   3.348   3.441 -0.4039 -0.1388 -0.2630
  324SOL    HW1  927   0.341   3.358   3.382 -0.3796 -0.4668 -0.3553
  324SOL    HW2  928   0.502   3.329   3.385 -0.1021  0.9742 -0.2361
  325SOL     OW  929   2.514   2.576   3.272  0.1670  0.1001  0.2552
  325SOL    HW1  930   2.497   2.477   3.270  0.0788  0.1126 -1.9199
  325SOL    HW2  931   2.551   2.601   3.362  0.6699 -1.9763  0.6959
  326SOL     OW  932   1.720   1.331   3.269 -0.4189  0.4015 -0.0542
  326SOL    HW1  933   1.700   1.368   3.178 -2.1871  0.2826  0.2380
  326SOL    HW2  934   1.662   1.378   3.337  1.2493  0.8740  1.1124
  327SOL     OW  935   1.007   3.572   1.257  0.0841  0.1395 -0.4273
  327SOL    HW1  936   0.916   3.561   1.217  0.4766 -0.6049 -1.1266
  327SOL    HW2  937   1.054   3.647   1.211 -0.8182  1.7711  1.1529
  328SOL     OW  938   0.032   3.579   3.586  0.4386  0.3369  0.3423
  328SOL    HW1  939   0.045   3.613   3.492 -0.9923  1.6211  0.5530
  328SOL    HW2  940  -0.064   3.552   3.598  0.3898  0.9887  1.6545
  329SOL     OW  941   1.602   3.581   1.367 -0.4411 -0.3542 -0.3358
  329SOL    HW1  942   1.594   3.548   1.461  1.1294  1.2120  0.4072
  329SOL    HW2  943   1.621   3.504   1.306  0.6181 -1.1410  0.9391
  330SOL     OW  944   0.119   3.624   1.134  0.3667 -0.2275 -0.0456
  330SOL    HW1  945   0.101   3.718   1.104 -0.5030 -0.6600 -0.9188
  330SOL    HW2  946   0.058   3.601   1.209 -0.3498 -0.5163 -0.6975
  331SOL     OW  947   3.507   3.292   0.554  0.1031  0.2102 -0.3153
  331SOL    HW1  948   3.593   3.344   0.558  0.3743 -0.3031  1.4405
  331SOL    HW2  949   3.488   3.267   0.459  2.4578 -0.5613 -0.6558
  332SOL     OW  950   1.435   1.046   1.065  0.3394  0.0146  0.5213
  332SOL    HW1  951   1.532   1.064   1.053  0.4171 -0.2361  0.7384
  332SOL    HW2  952   1.387   1.131   1.086  0.7589 -0.0757  1.9420
  333SOL     OW  953   0.754   0.734   2.777  0.3736 -0.5126 -0.2340
  333SOL    HW1  954   0.664   0.695   2.796 -1.0282  1.8305 -1.5685
  333SOL    HW2  955   0.794   0.689   2.698 -1.2484  0.6947 -1.8150
  334SOL     OW  956   0.838   0.986   2.655 -0.3676 -0.0792 -0.1044
  334SOL    HW1  957   0.785   1.038   2.588 -1.5243 -0.3603  0.5630
  334SOL    HW2  958   0.779   0.918   2.699  1.0285 -1.7832 -0.7513
  335SOL     OW  959   1.442   1.406   2.275  0.0137 -0.1888  0.8004
  335SOL    HW1  960   1.390   1.418   2.360 -1.1278  1.1767 -0.0375
  335SOL    HW2  961   1.425   1.315   2.239 -1.7145  0.1486  0.6520
  336SOL     OW  962   0.440   0.555   2.062 -0.1066  0.0826  0.0706
  336SOL    HW1  963   0.508   0.522   1.996  0.6414  1.2383  0.2223
  336SOL    HW2  964   0.406   0.644   2.032  0.3006  0.6617  1.2623
  337SOL     OW  965   0.292   1.917   3.537 -0.4855  0.5026 -0.8830
  337SOL    HW1  966   0.216   1.969   3.577 -0.7352  0.4920 -1.3312
  337SOL    HW2  967   0.262   1.824   3.518 -0.0858  0.2353 -0.2314
  338SOL     OW  968   1.674   3.112   2.615 -0.4837  0.3655 -0.3868
  338SOL    HW1  969   1.770   3.099   2.587 -0.0155 -1.9830  1.9295
  338SOL    HW2  970   1.626   3.025   2.608 -1.5779  0.7791  1.4710
  339SOL     OW  971   0.337   3.745   0.146 -0.2175  0.3891 -0.0711
  339SOL    HW1  972   0.418   3.782   0.101 -0.9912  1.5453 -0.5726
  339SOL    HW2  973   0.293   3.679   0.085 -0.2794  0.6210 -0.2808
  340SOL     OW  974   0.459   3.334   1.533  0.2985 -0.3125 -0.1106
  340SOL    HW1  975   0.528   3.342   1.606  1.0845 -2.0272 -0.6084
  340SOL    HW2  976   0.465   3.414   1.474  0.8587  0.2663  0.6909
  341SOL     OW  977   1.514   1.932   2.227 -0.2340 -0.0716 -0.3352
  341SOL    HW1  978   1.453   2.001   2.187  0.6910 -0.5641 -2.7346
  341SOL    HW2  979   1.590   1.978   2.272  0.0215  0.5200 -1.3318
  342SOL     OW  980   1.438   2.916   1.321  0.1426 -0.4497  0.2031
  342SOL    HW1  981   1.522   2.924   1.376 -0.2965 -2.5263  1.2869
  342SOL    HW2  982   1.391   3.004   1.319  1.6411  0.4055  0.7361
  343SOL     OW  983   0.641   0.092   2.569  0.5253  0.2516  0.1138
  343SOL    HW1  984   0.695   0.025   2.518  0.1882 -0.0701  0.1728
  343SOL    HW2  985   0.682   0.183   2.560 -0.1514  0.4175 -1.6634
  344SOL     OW  986   0.866   3.223   1.768 -0.0283  0.0407  0.0982
  344SOL    HW1  987   0.927   3.151   1.800  0.5077  0.7411  0.7080
  344SOL    HW2  988   0.882   3.306   1.823 -0.9438  0.4808 -0.2898
  345SOL     OW  989   2.458   0.973   2.468  0.5768  0.0858  0.0568
  345SOL    HW1  990   2.531   0.905   2.476  0.7298  0.3203  0.7241
  345SOL    HW2  991   2.493   1.063   2.494 -0.0516  0.1348  0.7549
  346SOL     OW  992   3.484   3.732   1.349  0.2483  0.1472 -0.3605
  346SOL    HW1  993   3.406   3.790   1.374  0.7419  0.6085  0.1398
  346SOL    HW2  994   3.485   3.650   1.406  0.9253  0.8211  0.6113
  347SOL     OW  995   3.284   3.769   1.723  0.8991  0.4396  0.4192
  347SOL    HW1  996   3.187   3.792   1.720  0.7946  0.0769  0.8336
  347SOL    HW2  997   3.315   3.743   1.632 -0.0595 -2.0451  0.7211
  348SOL     OW  998   1.610   0.537   0.070 -0.2715  0.6309  0.7841
  348SOL    HW1  999   1.639   0.625   0.107 -1.2194  2.1821 -1.8678
  348SOL    HW2 1000   1.521   0.512   0.108  0.2101  0.5703  1.8920
  349SOL     OW 1001   1.081   0.386   3.397  0.4960 -0.0339 -0.1303
  349SOL    HW1 1002   1.079   0.425   3.489  2.4973  0.8749 -0.4121
  349SOL    HW2 1003   1.174   0.390   3.362 -0.4663  1.1608 -2.8250
  350SOL     OW 1004   1.258   1.974   0.231  0.1503 -0.3490 -0.2903
  350SOL    HW1 1005   1.312   1.952   0.312 -0.1195 -1.2388 -0.3502
  350SOL    HW2 1006   1.297   2.055   0.187  0.3165  0.1310  0.7074
  351SOL     OW 1007   1.087   2.502   3.215  0.1870  0.3642  0.3001
  351SOL    HW1 1008   1.081   2.566   3.138 -0.4473  0.8711  0.7625
  351SOL    HW2 1009   1.180   2.464   3.219  0.2436  0.3835 -0.6679
  352SOL     OW 1010   2.125   1.352   0.288 -0.1368  0.7191  0.6182
  352SOL    HW1 1011   2.092   1.264   0.321  0.1081  0.7148  0.8528
  352SOL    HW2 1012   2.187   1.392   0.355  1.4661  0.0741 -0.4050
  353SOL     OW 1013   0.990   0.616   1.549  0.0026  0.1266  0.2789
  353SOL    HW1 1014   0.975   0.529   1.501 -1.5338  0.1790  0.6011
  353SOL    HW2 1015   0.958   0.607   1.644  0.4599  0.8465  0.5035
  354SOL     OW 1016   0.154   1.046   3.517 -0.2569  0.6289  0.2069
  354SOL    HW1 1017   0.074   1.022   3.462 -0.1702  0.3893  0.1871
  354SOL    HW2 1018   0.234   0.997   3.484 -0.7131 -1.6596  2.2287
  355SOL     OW 1019   0.279   1.913   2.428 -0.0302 -0.1249 -0.1103
  355SOL    HW1 1020   0.255   1.973   2.504  1.1339 -0.5717  0.6372
  355SOL    HW2 1021   0.308   1.968   2.350  1.0524  0.3088  0.5775
  356SOL     OW 1022   0.184   0.103   3.209 -0.6967 -1.0123 -0.7456
  356SOL    HW1 1023   0.282   0.103   3.192 -0.6630 -1.2214 -0.5515
  356SOL    HW2 1024   0.158   0.190   3.253 -0.8058 -0.4111 -1.9512
  357SOL     OW 1025   1.687   0.203   2.622 -0.1735 -0.1905 -0.9407
  357SOL    HW1 1026   1.688   0.165   2.530 -0.2844  1.6711 -1.7474
  357SOL    HW2 1027   1.764   0.266   2.633 -1.0256  0.7676 -0.2843
  358SOL     OW 1028   0.584   0.933   2.935 -0.1005  1.0796  0.2977
  358SOL    HW1 1029   0.677   0.901   2.951 -0.1244  0.5451 -0.5503
  358SOL    HW2 1030   0.528   0.857   2.901 -0.3520  1.8097 -1.0241
  359SOL     OW 1031   1.752   1.080   0.320  0.0086  0.1783 -0.3845
  359SOL    HW1 1032   1.722   1.145   0.390 -0.6887  1.1240 -1.5200
  359SOL    HW2 1033   1.690   1.086   0.241 -0.2819 -2.1238 -0.3888
  360SOL     OW 1034   3.210   1.124   0.767 -0.0858 -0.2578 -0.4688
  360SOL    HW1 1035   3.230   1.027   0.753  1.2136  0.0591 -0.9759
  360SOL    HW2 1036   3.289   1.168   0.811 -0.1799  0.7930 -1.2969
  361SOL     OW 1037   1.375   1.719   2.317  0.2252  0.5120 -0.5506
  361SOL    HW1 1038   1.444   1.649   2.332 -1.2011 -0.9905 -0.7548
  361SOL    HW2 1039   1.420   1.806   2.296  2.0462 -0.0671  0.7342
  362SOL     OW 1040   2.627   1.785   2.950 -0.6159 -0.0597 -0.4442
  362SOL    HW1 1041   2.641   1.690   2.979  0.2162 -0.1788 -1.1914
  362SOL    HW2 1042   2.715   1.831   2.944 -1.1093  1.1662  1.1678
  363SOL     OW 1043   1.056   3.694   1.810 -0.3308  0.3405  0.8964
  363SOL    HW1 1044   1.154   3.693   1.786 -0.9070  1.0613 -1.9171
  363SOL    HW2 1045   1.045   3.733   1.901  2.0906 -1.4506  2.0887
  364SOL     OW 1046   1.201   1.666   3.647  0.1633 -0.1705 -0.3628
  364SOL    HW1 1047   1.114   1.670   3.599  0.1806  0.3744 -0.3625
  364SOL    HW2 1048   1.274   1.698   3.586  0.7418 -2.8439 -1.1743
  365SOL     OW 1049   3.687   0.298   3.715 -0.0713 -0.1646 -0.5817
  365SOL    HW1 1050   3.587   0.288   3.717 -0.0958  0.0815  1.8974
  365SOL    HW2 1051   3.711   0.395   3.713  0.1572 -0.2276 -1.8856
  366SOL     OW 1052   1.979   1.441   3.640  0.0026 -0.1638  0.3644
  366SOL    HW1 1053   1.995   1.415   3.545  0.4043 -1.2599  0.7174
  366SOL    HW2 1054   1.911   1.514   3.644  0.9538  0.8484 -0.8454
  367SOL     OW 1055   3.529   0.442   1.712  0.1111  0.4979 -0.7199
  367SOL    HW1 1056   3.482   0.492   1.784 -0.5312 -0.1123 -0.7058
  367SOL    HW2 1057   3.625   0.431   1.736 -0.0420  0.5281 -0.0806
  368SOL     OW 1058   3.653   3.624   3.158 -0.5635  0.1777  0.7231
  368SOL    HW1 1059   3.593   3.555   3.117  0.1288  0.0807 -0.1452
  368SOL    HW2 1060   3.741   3.582   3.180 -0.2528  0.7099  0.4939
  369SOL     OW 1061   0.354   0.779   1.940 -0.0604  0.2553  0.6897
  369SOL    HW1 1062   0.302   0.835   2.004 -0.8788  0.9079 -0.5111
  369SOL    HW2 1063   0.387   0.836   1.865 -0.7669 -0.8112 -0.4723
  370SOL     OW 1064   1.450   1.043   2.826 -0.1362 -0.5473  0.1625
  370SOL    HW1 1065   1.516   0.975   2.855  0.1240 -0.3066  0.1385
  370SOL    HW2 1066   1.476   1.133   2.860 -0.8730 -0.5681  0.8179
  371SOL     OW 1067   1.096   1.396   0.156  0.4811 -0.6456  0.3128
  371SOL    HW1 1068   1.168   1.395   0.087 -0.9847 -0.5081 -1.2933
  371SOL    HW2 1069   1.024   1.332   0.130 -1.3706  1.3350  0.2491
  372SOL     OW 1070   0.545   2.204   2.829 -0.3004 -0.2486  0.2774
  372SOL    HW1 1071   0.580   2.180   2.919 -0.8139  0.2371  0.6157
  372SOL    HW2 1072   0.488   2.129   2.795  1.8948 -1.5437 -0.7718
  373SOL     OW 1073   0.843   1.712   3.165  0.4457 -0.1465  0.0916
  373SOL    HW1 1074   0.859   1.808   3.190  0.5890 -0.6058  1.8572
  373SOL    HW2 1075   0.842   1.704   3.065 -2.0047  2.1108 -0.2047
  374SOL     OW 1076   3.386   3.208   2.945 -0.5777  0.2768  0.2098
  374SOL    HW1 1077   3.434   3.129   2.983  0.2897  1.2142  1.1453
  374SOL    HW2 1078   3.397   3.210   2.846  1.6266  0.5942  0.3960
  375SOL     OW 1079   2.516   0.716   0.367 -0.2594  0.7919 -0.5331
  375SOL    HW1 1080   2.459   0.635   0.383  0.7680  0.1022 -0.2708
  375SOL    HW2 1081   2.457   0.795   0.351 -1.2975  0.2789  0.5671
  376SOL     OW 1082   3.500   3.847   3.240  0.1739 -0.3776  0.4093
  376SOL    HW1 1083   3.539   3.901   3.315  1.3571  0.2858 -0.6318
  376SOL    HW2 1084   3.550   3.761   3.231 -0.5873 -0.8877  0.9705
  377SOL     OW 1085   0.933   0.052   2.404  0.1035  0.7701 -0.2034
  377SOL    HW1 1086   0.879  -0.032   2.405 -1.5591  1.7906  1.0046
  377SOL    HW2 1087   0.898   0.114   2.334 -0.4175  1.4929  0.6713
  378SOL     OW 1088   3.804   3.816   2.572 -0.2009  0.0896  0.5798
  378SOL    HW1 1089   3.749   3.899   2.564  0.7643  0.5971 -1.4523
  378SOL    HW2 1090   3.791   3.776   2.663 -0.9313  2.2664  1.4967
  379SOL     OW 1091   1.225   3.757   3.458 -0.2663  0.1689  0.0320
  379SOL    HW1 1092   1.163   3.699   3.511  0.1359  0.7706  1.2140
  379SOL    HW2 1093   1.256   3.708   3.377 -0.0180 -1.2323  0.9397
  380SOL     OW 1094   1.181   1.553   1.499 -0.6056  0.1285  0.0373
  380SOL    HW1 1095   1.275   1.523   1.520 -0.8696  0.6572  2.1672
  380SOL    HW2 1096   1.137   1.484   1.442  0.3223 -1.3110  0.9738
  381SOL     OW 1097   3.318   0.261   0.101 -0.3856 -0.2473  0.1217
  381SOL    HW1 1098   3.334   0.261   0.200  3.3553  1.2159 -0.3234
  381SOL    HW2 1099   3.230   0.304   0.081 -1.4033 -0.9200  2.7844
  382SOL     OW 1100   1.794   2.585   0.062  0.0883 -0.5855  0.8891
  382SOL    HW1 1101   1.837   2.512   0.008  1.1485  0.5083  0.2016
  382SOL    HW2 1102   1.695   2.569   0.067 -0.0590 -0.7770 -1.3601
  383SOL     OW 1103   3.655   3.307   2.115 -0.2503  0.6126 -0.6842
  383SOL    HW1 1104   3.578   3.262   2.160 -0.4795  0.5528 -1.1340
  383SOL    HW2 1105   3.709   3.239   2.065  1.1491  0.3384  1.0908
  384SOL     OW 1106   3.803   0.419   1.735  0.5936  0.2380  0.1233
  384SOL    HW1 1107   3.877   0.444   1.674  0.7891  0.4313  0.4415
  384SOL    HW2 1108   3.837   0.359   1.807  0.4483  0.3515  0.2887
  385SOL     OW 1109   0.545   3.265   2.188 -0.0020 -0.0185  0.2269
  385SOL    HW1 1110   0.487   3.346   2.199 -1.1315 -0.7333 -0.2872
  385SOL    HW2 1111   0.528   3.223   2.098 -1.6412 -2.4549  1.5338
  386SOL     OW 1112   0.397   3.791   1.175 -0.1877 -0.3634 -0.0874
  386SOL    HW1 1113   0.384   3.863   1.242 -0.6446  0.0204 -0.5794
  386SOL    HW2 1114   0.346   3.813   1.091  1.4696 -0.1380 -1.0854
  387SOL     OW 1115   1.576   0.950   0.711  0.3943 -0.2567  0.2670
  387SOL    HW1 1116   1.486   0.995   0.720  1.0036  0.9914  0.3230
  387SOL    HW2 1117   1.584   0.879   0.781  0.3397  1.1939  1.8395
  388SOL     OW 1118   0.743   0.331   2.625 -0.6849 -0.6061  0.8774
  388SOL    HW1 1119   0.662   0.333   2.684 -1.0889  0.8632  0.3313
  388SOL    HW2 1120   0.826   0.330   2.682 -1.0482  1.3374  1.5460
  389SOL     OW 1121   0.051   0.548   1.119 -0.2077 -0.0568 -0.2147
  389SOL    HW1 1122  -0.005   0.480   1.165 -0.2030  1.0122  1.4518
  389SOL    HW2 1123   0.073   0.516   1.026 -0.8906 -1.9064  0.2162
  390SOL     OW 1124   0.456   1.865   1.882  0.1492 -0.1853  0.1788
  390SOL    HW1 1125   0.471   1.777   1.835  0.4620 -0.4783  0.8169
  390SOL    HW2 1126   0.544   1.906   1.905  0.0044  0.3365 -0.1664
  391SOL     OW 1127   1.383   1.839   2.656  0.0325 -0.1466 -0.0444
  391SOL    HW1 1128   1.438   1.756   2.650 -1.5523 -1.4132  1.9010
  391SOL    HW2 1129   1.304   1.830   2.596  0.5522  0.5732 -0.8615
  392SOL     OW 1130   0.465   0.066   3.466  0.1936 -0.0004 -0.1459
  392SOL    HW1 1131   0.541   0.004   3.488 -0.0008  0.7356  3.2257
  392SOL    HW2 1132   0.393   0.055   3.535 -0.2817  3.2206  0.0145
  393SOL     OW 1133   0.643   1.194   0.439  0.3505 -0.0226  0.1777
  393SOL    HW1 1134   0.715   1.141   0.484  1.8184  2.2661  0.6963
  393SOL    HW2 1135   0.670   1.213   0.345 -1.4613 -2.4549 -0.9356
  394SOL     OW 1136   0.644   3.699   3.488  0.0278 -0.4410  0.1030
  394SOL    HW1 1137   0.702   3.639   3.433  1.3924  0.6280  0.3257
  394SOL    HW2 1138   0.568   3.647   3.526  1.1843 -2.0202  0.3138
  395SOL     OW 1139   1.721   0.595   2.926  0.0467  0.2257 -0.4479
  395SOL    HW1 1140   1.682   0.659   2.992 -1.1832  1.3926 -2.2239
  395SOL    HW2 1141   1.759   0.646   2.849 -1.4793 -1.1847 -2.2092
  396SOL     OW 1142   0.060   3.507   3.163 -0.6479  0.0046 -0.2935
  396SOL    HW1 1143   0.007   3.427   3.136  0.0021  0.5333 -3.5491
  396SOL    HW2 1144   0.158   3.488   3.153 -0.4559  0.8901 -0.2365
  397SOL     OW 1145   2.218   1.319   2.929  0.5953  0.0806  0.6115
  397SOL    HW1 1146   2.197   1.351   3.022  1.1538  0.7366  0.5248
  397SOL    HW2 1147   2.170   1.233   2.911 -1.8283  1.3649  0.4942
  398SOL     OW 1148   0.211   2.837   0.511  0.3253 -0.2301  0.0089
  398SOL    HW1 1149   0.144   2.815   0.582  0.1182 -0.3677 -0.2259
  398SOL    HW2 1150   0.288   2.774   0.518  0.4215 -0.0838  0.2686
  399SOL     OW 1151   1.636   3.171   3.417 -0.4649  0.1077 -0.1627
  399SOL    HW1 1152   1.571   3.104   3.381  0.9300 -0.3191 -2.0554
  399SOL    HW2 1153   1.729   3.143   3.393  0.3076  1.6414  0.8846
  400SOL     OW 1154   1.018   0.750   3.792  0.2515 -0.1267  0.3197
  400SOL    HW1 1155   0.979   0.712   3.708  0.0664 -0.2048  0.4392
  400SOL    HW2 1156   1.005   0.684   3.867 -1.0529  0.6281  0.7775
  401SOL     OW 1157   3.483   3.502   1.521 -1.0615 -0.4683 -0.1504
  401SOL    HW1 1158   3.571   3.459   1.497  0.1634  1.6095  0.3582
  401SOL    HW2 1159   3.464   3.487   1.618 -0.8632 -0.2646 -0.0783
  402SOL     OW 1160   1.367   1.173   3.372 -0.2360  0.4418 -0.2990
  402SOL    HW1 1161   1.414   1.096   3.329 -1.3902 -0.3848 -0.1114
  402SOL    HW2 1162   1.394   1.179   3.468 -0.5266 -0.0538 -0.1830
  403SOL     OW 1163   1.669   1.169   1.977 -0.6340 -0.2324  0.4165
  403SOL    HW1 1164   1.706   1.109   1.906  1.5014  1.5516 -0.0570
  403SOL    HW2 1165   1.655   1.115   2.061 -2.4800 -2.1971 -1.0392
  404SOL     OW 1166   0.739   0.208   2.194 -0.4763 -0.1656 -0.0976
  404SOL    HW1 1167   0.644   0.182   2.178 -0.5220  0.1892 -0.3998
  404SOL    HW2 1168   0.777   0.249   2.111 -0.1406 -0.0637  0.1052
  405SOL     OW 1169   2.383   1.969   3.157  0.3571 -0.3338  0.1862
  405SOL    HW1 1170   2.302   2.026   3.143  0.5015  0.4062  2.0340
  405SOL    HW2 1171   2.461   2.010   3.110  0.3101  0.6542  0.9381
  406SOL     OW 1172   1.856   1.613   3.043  0.3813  0.6610  0.0962
  406SOL    HW1 1173   1.880   1.605   2.946 -0.2296  1.1519 -0.1084
  406SOL    HW2 1174   1.937   1.638   3.095  0.3298  2.3965 -0.5895
  407SOL     OW 1175   0.315   2.739   2.801  0.2348  0.2037 -0.1222
  407SOL    HW1 1176   0.314   2.642   2.779 -1.6900 -0.0308  0.8048
  407SOL    HW2 1177   0.304   2.793   2.718  0.9061 -0.3601 -0.5896
  408SOL     OW 1178   1.190   1.468   0.996 -0.4076 -0.2432 -0.4335
  408SOL    HW1 1179   1.100   1.508   0.976 -0.3591  0.7009  1.0857
  408SOL    HW2 1180   1.253   1.491   0.921 -0.8626  1.0092 -0.4570
  409SOL     OW 1181   1.995   3.376   1.945 -0.1123  0.2838 -0.2080
  409SOL    HW1 1182   1.948   3.391   2.033  0.5335  1.2290 -0.0079
  409SOL    HW2 1183   2.065   3.306   1.957 -2.1382 -1.9871 -0.7779
  410SOL     OW 1184   1.267   1.540   2.741  0.3305 -0.2469 -0.1637
  410SOL    HW1 1185   1.210   1.467   2.779 -0.9545 -0.1434 -1.7724
  410SOL    HW2 1186   1.267   1.618   2.803 -1.4602 -0.1842 -0.1913
  411SOL     OW 1187   3.713   2.194   2.163  0.6951 -0.2745  0.2178
  411SOL    HW1 1188   3.654   2.216   2.085  0.2884  0.1117  0.6308
  411SOL    HW2 1189   3.792   2.142   2.131  1.3845  1.2796 -0.7164
  412SOL     OW 1190   0.905   1.222   2.279  0.3167  0.2492 -0.6555
  412SOL    HW1 1191   0.972   1.285   2.318  0.3721 -0.1979 -0.0023
  412SOL    HW2 1192   0.884   1.249   2.185  1.0823  0.6514 -0.7211
  413SOL     OW 1193   1.524   0.940   3.488  0.1386  0.0060  0.4813
  413SOL    HW1 1194   1.588   0.964   3.415 -1.9484  0.2944 -1.3533
  413SOL    HW2 1195   1.562   0.970   3.576  2.3209  0.4952 -0.5559
  414SOL     OW 1196   1.148   2.379   1.623  0.0393 -0.3077  0.4517
  414SOL    HW1 1197   1.131   2.314   1.549 -2.9677  0.8546 -0.0208
  414SOL    HW2 1198   1.117   2.470   1.595  1.7577  0.8378  2.0400
  415SOL     OW 1199   1.712   2.365   2.336 -0.0126  0.1790 -0.2369
  415SOL    HW1 1200   1.785   2.383   2.270  1.3156 -0.1569  1.0733
  415SOL    HW2 1201   1.716   2.433   2.409  1.7572 -2.1924  2.0497
  416SOL     OW 1202   2.574   1.513   2.992  0.1989 -0.1526 -0.0144
  416SOL    HW1 1203   2.514   1.447   2.947 -0.2620 -0.8570  1.5315
  416SOL    HW2 1204   2.666   1.475   3.001  0.8653  0.8239 -2.1536
  417SOL     OW 1205   0.488   0.583   2.639 -0.7626 -0.6800 -0.1105
  417SOL    HW1 1206   0.511   0.505   2.698 -0.6733 -0.0175  0.7443
  417SOL    HW2 1207   0.480   0.551   2.544  1.0944 -1.4383 -0.0744
  418SOL     OW 1208   1.235   1.474   1.834 -0.0179 -0.2010  0.1823
  418SOL    HW1 1209   1.245   1.514   1.743  0.7572 -1.5996 -0.3791
  418SOL    HW2 1210   1.282   1.532   1.901  0.6063  0.1257 -0.5201
  419SOL     OW 1211   0.846   0.693   3.270  0.0733  0.0237  0.3272
  419SOL    HW1 1212   0.809   0.619   3.328  1.2539 -0.2897  0.7039
  419SOL    HW2 1213   0.945   0.691   3.273  0.1271  1.3143 -0.0884
  420SOL     OW 1214   1.437   0.282   2.733 -0.5766  0.2506 -0.5630
  420SOL    HW1 1215   1.530   0.277   2.696  0.2458  2.6411  0.9466
  420SOL    HW2 1216   1.429   0.218   2.810 -0.2147 -0.0381 -0.7597
  421SOL     OW 1217   1.668   1.688   2.278  0.0328 -0.1914 -0.1593
  421SOL    HW1 1218   1.715   1.656   2.195 -1.7001 -2.7941 -0.2364
  421SOL    HW2 1219   1.629   1.778   2.261  0.5702 -0.2322 -1.8168
  422SOL     OW 1220   3.815   0.817   0.228  0.4043 -0.6761 -0.3537
  422SOL    HW1 1221   3.856   0.736   0.271  0.5130 -0.4953 -0.1162
  422SOL    HW2 1222   3.835   0.898   0.284 -2.6992 -0.9506  1.4061
  423SOL     OW 1223   1.739   2.277   3.375  0.0863 -0.1981  0.1312
  423SOL    HW1 1224   1.750   2.229   3.288 -3.7201 -0.9997 -0.1054
  423SOL    HW2 1225   1.813   2.253   3.437  2.3051 -0.4804 -2.4595
  424SOL     OW 1226   1.824   1.663   3.663 -0.1490  0.2374  0.1018
  424SOL    HW1 1227   1.753   1.707   3.607 -2.4928  1.2343  3.4774
  424SOL    HW2 1228   1.864   1.732   3.724  0.5647 -1.1761  1.2739
  425SOL     OW 1229   0.074   3.154   3.786  0.0766  0.3281 -0.0238
  425SOL    HW1 1230   0.048   3.111   3.872  0.3111  3.0626  1.5347
  425SOL    HW2 1231   0.169   3.184   3.791 -0.3297  1.8084 -0.6372
  426SOL     OW 1232   0.449   0.141   3.187 -0.3039 -0.2694 -0.4598
  426SOL    HW1 1233   0.514   0.213   3.161 -1.1486  1.3268  1.5741
  426SOL    HW2 1234   0.461   0.120   3.284 -1.2870 -1.6188 -0.6111
  427SOL     OW 1235   2.362   0.396   3.364  0.2614 -0.5120  0.4020
  427SOL    HW1 1236   2.278   0.418   3.315  0.5308 -0.7968 -0.2026
  427SOL    HW2 1237   2.340   0.377   3.460 -0.6412 -2.3317 -0.1079
  428SOL     OW 1238   3.236   3.665   2.338  0.1311 -0.7944 -0.1931
  428SOL    HW1 1239   3.275   3.654   2.430  1.1170 -1.8315 -0.7067
  428SOL    HW2 1240   3.206   3.576   2.304  0.2489 -0.5030 -1.0785
  429SOL     OW 1241   0.231   3.213   2.876  0.3063 -0.9554  0.9301
  429SOL    HW1 1242   0.234   3.181   2.971  0.2281 -1.7919  0.6659
  429SOL    HW2 1243   0.324   3.214   2.838  0.6804  1.7437  1.7359
  430SOL     OW 1244   0.043   0.198   3.541 -0.2808  0.6563  0.6951
  430SOL    HW1 1245   0.090   0.112   3.563  0.4959  1.0387  0.5623
  430SOL    HW2 1246   0.004   0.236   3.624  0.5903  0.8785  1.0216
  431SOL     OW 1247   2.699   3.250   0.771 -0.2491  0.4125 -0.4162
  431SOL    HW1 1248   2.692   3.171   0.832  0.1463  1.6202  1.2642
  431SOL    HW2 1249   2.608   3.288   0.756 -0.1085  1.8703  1.9262
  432SOL     OW 1250   1.607   1.755   3.001 -0.3327 -0.4558  0.4703
  432SOL    HW1 1251   1.624   1.852   2.990  0.1344 -0.7515 -2.0652
  432SOL    HW2 1252   1.692   1.708   3.025  0.2544 -0.6153 -1.7326
  433SOL     OW 1253   0.083   3.403   1.808 -0.1319 -0.2837 -0.4427
  433SOL    HW1 1254   0.064   3.305   1.813  2.8770 -0.9898 -1.0715
  433SOL    HW2 1255   0.038   3.441   1.727 -1.7320 -0.9726  0.0640
  434SOL     OW 1256   3.772   3.675   2.803  0.0997  0.1768 -0.5944
  434SOL    HW1 1257   3.832   3.597   2.785 -0.6290 -0.8905  1.3002
  434SOL    HW2 1258   3.800   3.719   2.889  0.5792  2.1337 -1.6887
  435SOL     OW 1259   1.241   0.233   0.128  0.7172 -0.1486  0.0264
  435SOL    HW1 1260   1.162   0.241   0.189  1.3335 -0.4931  0.8868
  435SOL    HW2 1261   1.301   0.312   0.141  1.5517 -0.9114  0.9019
  436SOL     OW 1262   1.568   1.413   1.757  0.9109 -0.0039  0.5138
  436SOL    HW1 1263   1.475   1.417   1.793  0.0062  0.3682 -1.7096
  436SOL    HW2 1264   1.629   1.374   1.826 -1.0274 -1.0092  1.7311
  437SOL     OW 1265   1.328   0.173   3.504 -0.0150 -0.3350  0.2861
  437SOL    HW1 1266   1.296   0.103   3.568 -0.9409 -2.5056 -2.3757
  437SOL    HW2 1267   1.265   0.179   3.426  1.9679  0.9037 -1.3269
  438SOL     OW 1268   1.420   0.596   3.204  0.4106  0.2012  0.1034
  438SOL    HW1 1269   1.382   0.612   3.112  1.7574 -0.5735 -0.6227
  438SOL    HW2 1270   1.363   0.531   3.253  0.5144 -0.5730 -0.7786
  439SOL     OW 1271   0.010   2.223   3.487  0.0931  0.0027  0.5002
  439SOL    HW1 1272   0.095   2.240   3.437 -0.5453 -1.1954 -1.1085
  439SOL    HW2 1273   0.018   2.137   3.538 -0.8148 -1.3086 -1.4293
  440SOL     OW 1274   1.666   0.809   3.079 -0.1838  0.0725  0.1113
  440SOL    HW1 1275   1.716   0.891   3.107 -1.4825  0.9072  0.0782
  440SOL    HW2 1276   1.623   0.768   3.160 -1.0788  0.5065 -0.1353
  441SOL     OW 1277   1.225   0.618   2.683 -0.6082 -0.0565  0.1663
  441SOL    HW1 1278   1.322   0.622   2.708 -0.7651  0.4871  0.6915
  441SOL    HW2 1279   1.175   0.564   2.751 -0.6741 -0.3720 -0.1274
  442SOL     OW 1280   3.656   0.830   2.940 -0.2260 -0.0886 -0.6058
  442SOL    HW1 1281   3.718   0.769   2.988  2.3687  3.1093  0.4538
  442SOL    HW2 1282   3.701   0.867   2.858 -1.0288  1.6238 -0.3196
  443SOL     OW 1283   0.890   1.445   2.712 -0.3900  0.0191  0.3353
  443SOL    HW1 1284   0.906   1.475   2.618 -0.5124  2.1112  0.9210
  443SOL    HW2 1285   0.977   1.431   2.759 -0.2935  0.9021  0.4435
  444SOL     OW 1286   1.711   1.058   3.271  0.0148 -0.4096  0.0278
  444SOL    HW1 1287   1.724   1.155   3.289  0.2643 -0.7012  1.5490
  444SOL    HW2 1288   1.791   1.007   3.302 -0.0592 -1.1050 -0.8646
  445SOL     OW 1289   0.147   0.664   1.341  0.1721  0.3419  0.3751
  445SOL    HW1 1290   0.120   0.634   1.249  1.6621 -2.4429  0.7334
  445SOL    HW2 1291   0.088   0.620   1.409  0.5756  0.5148  0.8384
  446SOL     OW 1292   0.645   2.616   3.768  0.2817 -0.2691 -0.5679
  446SOL    HW1 1293   0.613   2.653   3.681 -3.8515 -1.6244  0.1916
  446SOL    HW2 1294   0.675   2.522   3.755  2.1913  0.3331 -0.8839
  447SOL     OW 1295   0.220   0.562   3.418  0.1014 -0.0893  0.6155
  447SOL    HW1 1296   0.173   0.645   3.388  2.1226  1.9163  2.5862
  447SOL    HW2 1297   0.185   0.484   3.367 -2.4375  1.8165 -0.8134
  448SOL     OW 1298   0.101   0.345   3.310 -0.2346  0.1512 -0.1761
  448SOL    HW1 1299   0.070   0.322   3.403  0.0552 -0.5442 -0.2487
  448SOL    HW2 1300   0.024   0.341   3.247 -0.6645  1.6980  0.2077
  449SOL     OW 1301   1.140   1.084   2.847  0.1510  0.3921 -0.3797
  449SOL    HW1 1302   1.224   1.078   2.901  0.4732 -1.4569 -1.0119
  449SOL    HW2 1303   1.163   1.093   2.750 -0.2698 -2.1112 -0.7828
  450SOL     OW 1304   3.723   1.448   2.720  0.3257 -0.0507 -0.3361
  450SOL    HW1 1305   3.626   1.459   2.698  0.1480  0.0563  0.4731
  450SOL    HW2 1306   3.768   1.537   2.719  0.3303 -0.0531 -0.3355
  451SOL     OW 1307   3.702   1.071   3.133 -0.9301  0.3332 -0.0043
  451SOL    HW1 1308   3.708   1.143   3.064  0.9716 -0.1598 -0.4257
  451SOL    HW2 1309   3.662   0.989   3.091  1.7640 -0.5230 -1.1166
  452SOL     OW 1310   1.245   1.446   0.612 -0.0499  0.0996  0.0772
  452SOL    HW1 1311   1.280   1.508   0.541 -3.6110  0.5052 -1.5218
  452SOL    HW2 1312   1.304   1.452   0.692  2.1582  2.3116 -1.5361
  453SOL     OW 1313   1.342   0.545   3.764  0.4988 -0.4747 -0.3130
  453SOL    HW1 1314   1.322   0.514   3.857 -0.7132 -1.8222 -0.9784
  453SOL    HW2 1315   1.365   0.642   3.766 -0.2235 -0.2972  1.3097
  454SOL     OW 1316   3.631   2.607   2.038  0.2374  0.2094 -0.2285
  454SOL    HW1 1317   3.685   2.613   1.954  0.7199  1.0267  0.1322
  454SOL    HW2 1318   3.678   2.549   2.104  0.0398 -0.1294 -0.3840
  455SOL     OW 1319   1.540   1.710   0.240 -0.1493 -0.4428  0.3195
  455SOL    HW1 1320   1.462   1.728   0.180  0.5002  1.2742 -0.0564
  455SOL    HW2 1321   1.607   1.653   0.191 -1.1441 -1.9598  0.6593
  456SOL     OW 1322   3.295   0.484   2.489 -0.3150  0.0966 -0.0162
  456SOL    HW1 1323   3.199   0.509   2.473 -0.5138  0.0539  1.0272
  456SOL    HW2 1324   3.313   0.482   2.588  0.9647  0.8600 -0.2055
  457SOL     OW 1325   0.077   1.275   2.623  0.4896  0.6764  0.7929
  457SOL    HW1 1326   0.131   1.285   2.706  1.0513  0.6647  0.4400
  457SOL    HW2 1327  -0.003   1.336   2.626  0.4543  0.6001  1.3756
  458SOL     OW 1328   0.824   0.576   0.798  0.0993 -0.0450 -0.3176
  458SOL    HW1 1329   0.899   0.540   0.853 -1.7291 -0.9001  1.7826
  458SOL    HW2 1330   0.858   0.648   0.737  2.8218 -1.4010 -0.5257
  459SOL     OW 1331   1.617   3.695   3.026 -0.2176  0.0413  0.9052
  459SOL    HW1 1332   1.701   3.647   3.053  1.5221  2.3532 -0.0954
  459SOL    HW2 1333   1.621   3.717   2.928 -1.1643  1.7486  1.2173
  460SOL     OW 1334   1.737   1.020   1.744  0.0742  0.3673  0.1237
  460SOL    HW1 1335   1.691   0.935   1.770  0.3200  0.2428  0.1557
  460SOL    HW2 1336   1.670   1.084   1.705 -0.0435  0.0204 -0.2423
  461SOL     OW 1337   3.422   3.205   0.283 -0.1129 -0.3760 -0.4006
  461SOL    HW1 1338   3.516   3.193   0.253  0.1173 -2.2501  0.9449
  461SOL    HW2 1339   3.370   3.122   0.266 -1.5216  0.5835 -1.0008
  462SOL     OW 1340   0.790   3.203   1.510 -0.2738  0.5741  0.4551
  462SOL    HW1 1341   0.698   3.170   1.533  0.2564 -1.3688  0.0313
  462SOL    HW2 1342   0.847   3.203   1.593  0.2251 -1.5157  0.1907
  463SOL     OW 1343   0.797   3.656   2.418 -0.0843  0.5156  0.2249
  463SOL    HW1 1344   0.804   3.573   2.474 -2.0840  1.0353  1.3564
  463SOL    HW2 1345   0.704   3.663   2.382 -0.0537  2.4546  0.4442
  464SOL     OW 1346   1.115   3.799   2.804  0.6356 -0.1360 -0.1947
  464SOL    HW1 1347   1.091   3.857   2.726  0.6344  0.4002  0.2004
  464SOL    HW2 1348   1.045   3.808   2.875  1.6733  0.9835  0.7257
  465SOL     OW 1349   0.297   0.311   2.342 -0.5812 -0.1592  0.3078
  465SOL    HW1 1350   0.338   0.392   2.384 -0.1869 -0.5378  0.6582
  465SOL    HW2 1351   0.298   0.236   2.407  0.2646 -0.8288 -0.4549
  466SOL     OW 1352   0.398   0.755   2.821 -0.2025  0.3946 -0.0296
  466SOL    HW1 1353   0.308   0.717   2.842 -0.4758  0.8699 -0.3074
  466SOL    HW2 1354   0.446   0.694   2.758  0.0922 -0.3771  0.9138
  467SOL     OW 1355   0.677   2.360   3.683 -0.3414 -0.2144  0.1172
  467SOL    HW1 1356   0.697   2.388   3.589 -0.6826 -0.3427  0.0057
  467SOL    HW2 1357   0.578   2.352   3.696 -0.3652  0.9350  0.8171
  468SOL     OW 1358   3.610   2.038   1.488 -0.0019  0.1103 -0.1408
  468SOL    HW1 1359   3.657   1.963   1.534 -1.1755 -0.1941  0.6070
  468SOL    HW2 1360   3.633   2.037   1.391  0.3132 -0.9679 -0.0685
  469SOL     OW 1361   0.347   1.699   1.223  0.0966  1.2254 -0.5683
  469SOL    HW1 1362   0.315   1.617   1.272  1.8113  0.6380 -0.3711
  469SOL    HW2 1363   0.279   1.725   1.155 -1.8539  1.3942  1.3149
  470SOL     OW 1364   0.619   3.015   3.006  0.0798  0.2373 -0.6722
  470SOL    HW1 1365   0.697   3.006   3.068 -1.0097 -0.7115  0.6279
  470SOL    HW2 1366   0.553   2.943   3.025 -1.8958  1.9809 -0.5982
  471SOL     OW 1367   0.466   2.526   1.572  0.1433 -0.0271  0.5911
  471SOL    HW1 1368   0.399   2.595   1.545 -0.6208 -0.5018  1.2353
  471SOL    HW2 1369   0.495   2.541   1.666  2.2806  1.2082 -0.1909
  472SOL     OW 1370   1.473   0.082   1.554  0.1336 -0.6480 -0.0958
  472SOL    HW1 1371   1.470   0.180   1.575 -1.1321 -1.0159  1.6927
  472SOL    HW2 1372   1.439   0.030   1.633  1.5861 -2.5980 -0.6782
  473SOL     OW 1373   2.272   2.682   3.484  0.1009  0.5570 -0.3704
  473SOL    HW1 1374   2.259   2.773   3.523  0.0840  0.3379  0.1345
  473SOL    HW2 1375   2.278   2.614   3.557  0.8268  0.2373 -0.7104
  474SOL     OW 1376   0.950   2.530   1.457  0.2348  0.1508 -0.1665
  474SOL    HW1 1377   0.958   2.462   1.384  1.0335 -0.4375  0.4462
  474SOL    HW2 1378   0.869   2.510   1.512  0.6218 -0.4886  0.1822
  475SOL     OW 1379   0.518   2.635   3.199 -0.3369 -0.0341 -0.1657
  475SOL    HW1 1380   0.538   2.547   3.156 -1.3996 -0.5331  0.3153
  475SOL    HW2 1381   0.603   2.685   3.216  0.4269 -1.6322  0.9643
  476SOL     OW 1382   1.673   2.545   3.332  0.9460 -0.7673 -0.1529
  476SOL    HW1 1383   1.664   2.601   3.414 -1.3263  1.5934 -1.8702
  476SOL    HW2 1384   1.697   2.451   3.359 -2.0549 -0.7517  3.4273
  477SOL     OW 1385   0.279   2.067   1.790  0.1168  0.6635  0.0974
  477SOL    HW1 1386   0.294   2.156   1.832  1.1263 -0.8558  3.2650
  477SOL    HW2 1387   0.336   1.999   1.835 -1.2295 -1.7748 -1.6399
  478SOL     OW 1388   0.719   0.197   1.079 -0.2217 -0.0407  0.8365
  478SOL    HW1 1389   0.705   0.099   1.065 -1.0683  0.0344  1.0687
  478SOL    HW2 1390   0.637   0.237   1.119 -0.7634  1.1754 -1.2805
  479SOL     OW 1391   1.551   3.385   1.176 -0.4186 -0.0929 -0.0204
  479SOL    HW1 1392   1.500   3.470   1.160  2.2389  1.5333 -0.5966
  479SOL    HW2 1393   1.488   3.313   1.205 -2.8021  2.0367  0.4762
  480SOL     OW 1394   0.686   2.098   1.555  0.1359  0.2582  0.2243
  480SOL    HW1 1395   0.613   2.112   1.488 -0.9908  0.1243  1.3746
  480SOL    HW2 1396   0.770   2.071   1.508 -0.4835  0.6240 -1.1542
  481SOL     OW 1397   0.846   2.764   1.317 -0.0142 -0.7099  0.2165
  481SOL    HW1 1398   0.751   2.742   1.339 -0.2929  1.2516  1.2386
  481SOL    HW2 1399   0.906   2.692   1.351 -1.0414 -1.2835  0.8445
  482SOL     OW 1400   0.753   0.833   1.654  0.4301 -0.4156  0.3588
  482SOL    HW1 1401   0.706   0.818   1.568  0.3629 -1.2742  0.5414
  482SOL    HW2 1402   0.823   0.905   1.642  1.7301 -1.8233 -0.9144
  483SOL     OW 1403   0.754   3.718   3.042 -0.3468 -0.3504  0.2861
  483SOL    HW1 1404   0.719   3.656   2.972  0.0540 -3.0105  2.2754
  483SOL    HW2 1405   0.694   3.715   3.122 -0.5926  2.3203  0.2933
  484SOL     OW 1406   1.427   3.263   0.094 -0.0715  0.3855  0.7830
  484SOL    HW1 1407   1.516   3.293   0.062  0.9133  0.4415  3.3225
  484SOL    HW2 1408   1.360   3.272   0.020  1.9502  0.4832 -1.1514
  485SOL     OW 1409   0.260   3.776   0.550  0.0936  0.5180  0.4351
  485SOL    HW1 1410   0.307   3.717   0.485 -0.4579  0.8779 -0.2984
  485SOL    HW2 1411   0.318   3.791   0.630  0.9298  0.3982 -0.1467
  486SOL     OW 1412   0.593   0.495   1.809  0.3954 -0.4758 -0.2713
  486SOL    HW1 1413   0.577   0.509   1.711  0.4086  0.2353 -0.1768
  486SOL    HW2 1414   0.689   0.512   1.830  0.4384 -0.8329 -0.1636
  487SOL     OW 1415   3.132   2.061   3.756 -0.4928 -0.1675 -0.5321
  487SOL    HW1 1416   3.204   2.111   3.709 -0.2567 -2.0595 -2.3100
  487SOL    HW2 1417   3.043   2.085   3.716 -0.5456 -0.0596 -0.3528
  488SOL     OW 1418   0.357   3.107   0.208 -0.2551 -0.0514 -0.1849
  488SOL    HW1 1419   0.293   3.033   0.230 -0.1442 -0.3436 -0.8417
  488SOL    HW2 1420   0.401   3.089   0.120  1.0778 -0.0939  0.4558
  489SOL     OW 1421   2.055   3.591   0.835 -0.1307  0.0182  0.1257
  489SOL    HW1 1422   2.133   3.619   0.891  1.0985 -0.4961 -1.2309
  489SOL    HW2 1423   2.054   3.492   0.826 -2.2684 -0.1908  1.8779
  490SOL     OW 1424   0.134   2.163   3.789 -0.4867 -0.6862 -0.1815
  490SOL    HW1 1425   0.044   2.136   3.756 -1.5677  1.7891  0.5830
  490SOL    HW2 1426   0.130   2.255   3.827  1.9831 -1.1893  1.5335
  491SOL     OW 1427   1.097   2.290   0.002 -0.5215 -0.2185 -0.6528
  491SOL    HW1 1428   1.070   2.356   0.073  1.1248 -0.8299  0.6125
  491SOL    HW2 1429   1.194   2.269   0.012  0.0740  0.4777 -3.8148
  492SOL     OW 1430   0.939   0.305   1.154 -0.2521  0.3891 -0.2163
  492SOL    HW1 1431   0.988   0.327   1.070 -1.0383  1.7847 -0.3398
  492SOL    HW2 1432   0.852   0.259   1.132  1.2904 -2.9926  0.0291
  493SOL     OW 1433   3.043   3.097   3.634  0.1461  0.1281 -0.4692
  493SOL    HW1 1434   3.034   3.155   3.553  1.2975  1.5771  0.3811
  493SOL    HW2 1435   3.096   3.016   3.611 -0.9751 -0.3348 -1.5404
  494SOL     OW 1436   3.406   0.219   3.692  0.0823 -0.2057  0.0165
  494SOL    HW1 1437   3.331   0.181   3.638 -0.2363  0.5443 -0.0892
  494SOL    HW2 1438   3.377   0.228   3.787  0.2353 -0.4323  0.0854
  495SOL     OW 1439   0.630   3.670   0.552 -0.1790  0.0050 -0.5163
  495SOL    HW1 1440   0.701   3.707   0.492  0.3347  2.5832  1.5125
  495SOL    HW2 1441   0.552   3.641   0.496  0.6692  1.2959 -2.5104
  496SOL     OW 1442   3.438   1.125   1.121  0.4733  0.6527  0.6702
  496SOL    HW1 1443   3.427   1.213   1.165 -0.2181  0.6341  0.5371
  496SOL    HW2 1444   3.366   1.062   1.152 -0.3163  0.7850 -0.8180
  497SOL     OW 1445   0.354   2.363   0.222  0.3710 -0.0383 -0.5040
  497SOL    HW1 1446   0.363   2.268   0.195 -0.0877  0.0289 -0.9021
  497SOL    HW2 1447   0.433   2.390   0.277 -0.7879 -1.4842  2.0919
  498SOL     OW 1448   0.582   2.742   1.368 -0.0475 -0.0942 -0.6310
  498SOL    HW1 1449   0.557   2.830   1.328  1.2677  1.4101  1.5902
  498SOL    HW2 1450   0.520   2.720   1.443  1.9703  1.1117  1.5438
  499SOL     OW 1451   3.768   1.488   1.054  0.1538  0.3751  0.0206
  499SOL    HW1 1452   3.866   1.507   1.067  0.2537  0.0708 -0.2617
  499SOL    HW2 1453   3.716   1.530   1.128  0.5532  0.0630  0.4865
  500SOL     OW 1454   1.423   2.481   3.183 -0.2106  0.0896  0.2042
  500SOL    HW1 1455   1.496   2.413   3.172  0.1395  0.5721 -0.6009
  500SOL    HW2 1456   1.414   2.534   3.098 -0.6130  0.9114  0.7427
  501SOL     OW 1457   0.922   0.016   1.414  0.0158  0.1630 -0.1591
  501SOL    HW1 1458   1.018   0.041   1.406  0.4232 -1.6580 -1.5393
  501SOL    HW2 1459   0.887  -0.010   1.324 -1.8891  1.1090  0.2503
  502SOL     OW 1460   2.425   3.750   3.414 -0.4117 -0.3836 -0.4388
  502SOL    HW1 1461   2.398   3.731   3.508 -0.2819  0.4433 -0.2207
  502SOL    HW2 1462   2.345   3.777   3.361 -0.3917 -0.2808 -0.4163
  503SOL     OW 1463   0.949   3.508   3.829  0.1092 -0.2872 -0.6312
  503SOL    HW1 1464   0.947   3.497   3.729 -0.3713 -2.9918 -0.3987
  503SOL    HW2 1465   0.888   3.584   3.854 -0.8329 -0.4122 -2.3151
  504SOL     OW 1466   0.663   1.658   2.322  0.1207 -0.1269 -0.0143
  504SOL    HW1 1467   0.700   1.624   2.235  2.7458 -0.2324  1.0729
  504SOL    HW2 1468   0.673   1.757   2.326  2.3733 -0.3364  1.1135
  505SOL     OW 1469   2.544   0.292   3.139  0.3216 -0.3872  0.1042
  505SOL    HW1 1470   2.470   0.352   3.172  1.3763  1.8905 -1.4254
  505SOL    HW2 1471   2.628   0.345   3.130  1.7861 -2.5698  0.3336
  506SOL     OW 1472   0.156   3.438   1.522  0.3150  0.1355  0.0528
  506SOL    HW1 1473   0.206   3.517   1.486  1.7633 -0.6325  0.2966
  506SOL    HW2 1474   0.218   3.381   1.576 -0.9666 -0.6077  0.7888
  507SOL     OW 1475   1.365   2.011   1.759  0.1510  0.5038 -0.4220
  507SOL    HW1 1476   1.294   1.995   1.827  1.6287 -1.5935  0.7423
  507SOL    HW2 1477   1.367   2.108   1.735 -2.6666  0.7272 -0.0761
  508SOL     OW 1478   0.631   2.497   0.886 -0.4917  0.5465 -0.1324
  508SOL    HW1 1479   0.704   2.551   0.843 -0.1401  1.0411  1.0643
  508SOL    HW2 1480   0.625   2.519   0.983  0.4377 -2.3631  0.6860
  509SOL     OW 1481   0.859   1.776   0.736 -0.4246 -0.1548  0.3198
  509SOL    HW1 1482   0.777   1.790   0.792 -0.3368  0.5976  0.2675
  509SOL    HW2 1483   0.912   1.700   0.774 -1.0588 -0.5390  0.4501
  510SOL     OW 1484   0.610   1.389   1.723  0.2356 -0.3737  0.2932
  510SOL    HW1 1485   0.707   1.410   1.713  0.0861  0.0706 -0.2829
  510SOL    HW2 1486   0.593   1.350   1.814  1.0637 -1.1283  0.1375
  511SOL     OW 1487   0.936   1.590   3.529 -0.1202 -0.2718  0.1500
  511SOL    HW1 1488   0.961   1.564   3.436  0.5873 -1.8768  0.7576
  511SOL    HW2 1489   0.946   1.512   3.590  0.6635  1.0524  1.8216
  512SOL     OW 1490   2.443   2.871   1.238  0.3505 -0.9844  0.5138
  512SOL    HW1 1491   2.346   2.885   1.260  0.8145 -0.1074  2.1921
  512SOL    HW2 1492   2.479   2.952   1.192  0.2888 -1.3307 -0.1550
  513SOL     OW 1493   0.634   0.673   3.753 -0.3188  0.3019  0.1920
  513SOL    HW1 1494   0.695   0.603   3.715 -0.3839  0.6820 -0.6397
  513SOL    HW2 1495   0.550   0.676   3.699 -1.1352 -0.2705  1.3719
  514SOL     OW 1496   0.098   3.173   0.854 -0.3763 -0.0763  0.3150
  514SOL    HW1 1497   0.000   3.191   0.860 -0.4138 -0.2694  0.2967
  514SOL    HW2 1498   0.122   3.149   0.760 -0.0219  1.5932 -0.0555
  515SOL     OW 1499   1.148   2.461   0.607  0.3023 -0.5005 -0.1295
  515SOL    HW1 1500   1.159   2.370   0.649 -0.4907 -0.0345  1.1592
  515SOL    HW2 1501   1.085   2.454   0.529 -0.3992 -0.9337  0.4596
  516SOL     OW 1502   1.980   3.120   3.372  0.4413  0.1154  0.3601
  516SOL    HW1 1503   2.039   3.200   3.379  1.8706 -0.8899  0.3187
  516SOL    HW2 1504   1.999   3.057   3.448 -1.0207  0.0175  0.6907
  517SOL     OW 1505   2.917   0.579   0.777 -0.0710  0.1594 -0.8271
  517SOL    HW1 1506   2.984   0.599   0.706 -0.4330 -0.5538 -1.3739
  517SOL    HW2 1507   2.914   0.655   0.842  2.5719 -0.5189  0.2406
  518SOL     OW 1508   1.230   0.222   1.246  0.4548 -0.0763  0.5513
  518SOL    HW1 1509   1.280   0.211   1.160 -0.0345  0.8593  0.1359
  518SOL    HW2 1510   1.145   0.272   1.229  0.6167  0.6152  1.6619
  519SOL     OW 1511   3.822   2.453   1.086  0.4392  0.7752  0.0974
  519SOL    HW1 1512   3.810   2.498   0.997  1.3939 -0.5788 -0.7635
  519SOL    HW2 1513   3.768   2.500   1.155 -0.5118  1.7256 -1.2465
  520SOL     OW 1514   1.915   3.666   0.247 -0.3697 -0.0907  0.0423
  520SOL    HW1 1515   1.932   3.698   0.153 -0.1454  1.2501  0.5166
  520SOL    HW2 1516   1.918   3.744   0.309  2.4923 -1.3296  1.6122
  521SOL     OW 1517   3.515   0.483   0.915  0.0708 -0.3395  0.5691
  521SOL    HW1 1518   3.489   0.561   0.972  2.3018 -1.0289  2.7424
  521SOL    HW2 1519   3.436   0.451   0.863 -1.3854  2.0938  1.1508
  522SOL     OW 1520   0.574   1.689   0.897  0.3792  0.3497 -0.0089
  522SOL    HW1 1521   0.591   1.673   0.994 -1.6883  1.5530  0.6301
  522SOL    HW2 1522   0.506   1.762   0.887 -2.1275 -2.0533 -2.2317
  523SOL     OW 1523   0.344   3.517   3.134 -0.6048  0.4122  0.2795
  523SOL    HW1 1524   0.382   3.425   3.124 -4.0792 -1.3018  1.2210
  523SOL    HW2 1525   0.320   3.553   3.044 -2.9172 -1.4318  0.0647
  524SOL     OW 1526   0.362   2.366   1.396 -0.0380  0.1112  0.3545
  524SOL    HW1 1527   0.400   2.433   1.460  0.0106 -0.4268  0.9013
  524SOL    HW2 1528   0.383   2.274   1.429 -0.8908 -0.1828  0.0879
  525SOL     OW 1529   1.015   3.787   0.785 -0.3483  0.2440  0.2638
  525SOL    HW1 1530   0.975   3.709   0.831 -1.1359  0.3433 -0.2375
  525SOL    HW2 1531   1.042   3.761   0.692 -1.7067  0.8488 -0.3295
  526SOL     OW 1532   1.169   1.951   1.965 -0.0702  0.4273 -0.6888
  526SOL    HW1 1533   1.108   2.030   1.956 -0.6459  0.1884  0.7366
  526SOL    HW2 1534   1.115   1.869   1.986  0.6446 -0.0272 -0.5847
  527SOL     OW 1535   1.074   1.653   0.823  0.0335 -0.1169  0.4451
  527SOL    HW1 1536   1.115   1.654   0.731  1.1216  1.2266  0.8966
  527SOL    HW2 1537   1.127   1.714   0.882 -0.2311 -1.4954  2.1579
  528SOL     OW 1538   0.451   3.738   0.757 -0.3867  0.4768  0.1894
  528SOL    HW1 1539   0.519   3.734   0.684  1.0472 -1.3286  1.5130
  528SOL    HW2 1540   0.489   3.787   0.836 -0.7684 -0.1324  0.7695
  529SOL     OW 1541   1.686   0.067   0.602  0.1639 -0.1887 -0.1439
  529SOL    HW1 1542   1.725   0.157   0.620  1.5445 -0.9321  0.7752
  529SOL    HW2 1543   1.740  -0.003   0.649 -1.3022 -1.4411 -0.2377
  530SOL     OW 1544   0.517   1.903   0.120 -0.0788  0.4970 -0.6167
  530SOL    HW1 1545   0.600   1.945   0.155 -0.3426 -1.5601  2.9854
  530SOL    HW2 1546   0.539   1.848   0.039  2.1441 -0.0716  0.2949
  531SOL     OW 1547   0.150   1.155   1.820 -0.2061  0.0344  0.1016
  531SOL    HW1 1548   0.200   1.138   1.905  0.6026 -0.9518 -0.5572
  531SOL    HW2 1549   0.071   1.093   1.815 -1.6467  1.6914  1.2122
  532SOL     OW 1550   0.436   1.606   0.576 -0.5490  0.1898 -0.5520
  532SOL    HW1 1551   0.491   1.537   0.622 -0.8687  0.2904 -0.0079
  532SOL    HW2 1552   0.347   1.568   0.553  0.1007 -0.3112 -2.4048
  533SOL     OW 1553   3.645   1.734   0.156 -0.5648 -0.2862  0.3889
  533SOL    HW1 1554   3.665   1.698   0.065 -0.0262  0.8328  0.0399
  533SOL    HW2 1555   3.612   1.660   0.215 -0.5340 -1.1070 -0.5906
  534SOL     OW 1556   3.233   3.590   0.540 -0.2628  0.3538 -0.1966
  534SOL    HW1 1557   3.238   3.689   0.552  0.3044  0.0964  2.0321
  534SOL    HW2 1558   3.297   3.562   0.469  1.1845  1.3650  0.6610
  535SOL     OW 1559   1.124   3.439   0.223 -0.6162 -0.3587  0.4106
  535SOL    HW1 1560   1.067   3.433   0.141 -0.4586  0.5270  0.2175
  535SOL    HW2 1561   1.204   3.496   0.203 -0.3142 -0.5562  1.0359
  536SOL     OW 1562   1.497   2.740   0.919 -0.4780 -0.2038 -0.8642
  536SOL    HW1 1563   1.586   2.773   0.948 -0.0275 -0.9031 -1.4146
  536SOL    HW2 1564   1.427   2.768   0.985  0.5192 -1.7882  0.9496
  537SOL     OW 1565   0.985   2.799   3.012  0.1172 -0.2971 -0.1567
  537SOL    HW1 1566   1.020   2.782   2.920 -1.1784 -1.3623 -0.4874
  537SOL    HW2 1567   1.040   2.870   3.056  0.5059  0.5303 -1.8973
  538SOL     OW 1568   1.267   2.417   0.270  0.2860 -0.1165  0.3814
  538SOL    HW1 1569   1.248   2.507   0.231 -2.1173 -0.0404  1.5381
  538SOL    HW2 1570   1.188   2.387   0.324  1.8319 -2.0320  1.7058
  539SOL     OW 1571   1.198   3.374   3.220 -0.0129  0.0574 -0.4034
  539SOL    HW1 1572   1.298   3.377   3.214  0.0271 -2.0933 -2.6748
  539SOL    HW2 1573   1.159   3.444   3.160  0.2309 -1.4956 -2.4700
  540SOL     OW 1574   1.099   2.520   1.055  0.0596 -0.9644 -0.2285
  540SOL    HW1 1575   1.073   2.614   1.078  1.4825 -0.9774  1.6472
  540SOL    HW2 1576   1.167   2.521   0.982 -0.8532 -0.6471 -1.1096
  541SOL     OW 1577   1.474   1.291   1.319 -0.5614 -0.6820  0.3552
  541SOL    HW1 1578   1.388   1.290   1.268 -0.0791 -2.1467 -0.4895
  541SOL    HW2 1579   1.549   1.266   1.258  0.3623 -0.2281  1.2759
  542SOL     OW 1580   0.598   2.044   2.573 -0.3421 -0.4068 -0.1239
  542SOL    HW1 1581   0.642   2.117   2.625  0.8379 -1.1499 -0.0471
  542SOL    HW2 1582   0.560   1.976   2.635 -0.2016 -0.5684 -0.2149
  543SOL     OW 1583   0.397   0.627   3.609  0.3868 -0.4051  0.2099
  543SOL    HW1 1584   0.344   0.607   3.527  1.0426 -1.0403 -0.0621
  543SOL    HW2 1585   0.337   0.625   3.689  0.2068 -2.4478  0.0773
  544SOL     OW 1586   1.505   2.387   0.449 -0.0765  0.2062 -0.4340
  544SOL    HW1 1587   1.420   2.416   0.405 -0.3066 -0.6288 -0.5668
  544SOL    HW2 1588   1.557   2.329   0.386 -0.3009 -0.8211  0.2951
  545SOL     OW 1589   1.088   0.597   0.386  0.1543  0.4005 -0.1586
  545SOL    HW1 1590   1.130   0.661   0.451 -0.6244  0.7577  0.0009
  545SOL    HW2 1591   1.034   0.529   0.435  0.5639 -0.0876 -0.3636
  546SOL     OW 1592   0.202   1.442   1.140  0.0376  0.2581 -0.1334
  546SOL    HW1 1593   0.274   1.391   1.092 -0.2433 -0.7088  0.4392
  546SOL    HW2 1594   0.220   1.441   1.238 -0.8438 -0.1605  0.0370
  547SOL     OW 1595   0.555   1.443   1.436 -0.2000  0.0218 -0.0089
  547SOL    HW1 1596   0.583   1.398   1.352  0.6632  0.7615 -0.1362
  547SOL    HW2 1597   0.624   1.428   1.507 -0.3374  0.3952  0.2083
  548SOL     OW 1598   0.166   1.550   0.513 -0.0459  0.1693 -0.1493
  548SOL    HW1 1599   0.107   1.483   0.558  0.1791 -0.3354 -0.5933
  548SOL    HW2 1600   0.109   1.619   0.468 -0.2876  1.4138  1.9174
  549SOL     OW 1601   0.313   2.604   1.047 -0.1563 -0.7798 -0.1739
  549SOL    HW1 1602   0.322   2.609   0.948 -0.0183  1.0833 -0.1104
  549SOL    HW2 1603   0.250   2.530   1.071 -3.0351  0.9218 -1.8811
  550SOL     OW 1604   1.426   2.656   1.421 -0.5562 -0.1036 -0.2365
  550SOL    HW1 1605   1.412   2.751   1.394  0.2777 -0.2472 -1.2185
  550SOL    HW2 1606   1.432   2.598   1.339  0.1210 -0.8316  0.3165
  551SOL     OW 1607   1.068   0.261   0.358 -0.1662 -0.2561 -0.3352
  551SOL    HW1 1608   0.993   0.229   0.301 -0.6689 -2.8735  1.6165
  551SOL    HW2 1609   1.032   0.302   0.441  0.4790 -1.9716  0.8464
  552SOL     OW 1610   1.171   2.676   0.226 -0.3426  0.2567  0.2515
  552SOL    HW1 1611   1.139   2.705   0.136 -0.1436 -0.7337 -0.1467
  552SOL    HW2 1612   1.160   2.751   0.291  1.5794  1.7521 -1.0686
  553SOL     OW 1613   2.906   2.508   0.465 -0.1737 -0.2835  0.3902
  553SOL    HW1 1614   2.807   2.505   0.461 -0.2832  0.0791  2.0936
  553SOL    HW2 1615   2.936   2.596   0.503  0.7651 -0.6600  0.5680
  554SOL     OW 1616   0.663   0.203   0.680  0.0468 -0.4797 -0.3137
  554SOL    HW1 1617   0.756   0.192   0.715  0.6412  2.3019 -0.8048
  554SOL    HW2 1618   0.599   0.207   0.757  0.6818  0.2442  0.1962
  555SOL     OW 1619   2.000   0.406   1.558  0.2242 -0.5939 -0.0606
  555SOL    HW1 1620   1.924   0.381   1.498 -0.4673 -1.1084  0.9952
  555SOL    HW2 1621   2.004   0.505   1.568 -2.2544 -0.6087  2.2278
  556SOL     OW 1622   1.312   3.122   0.701 -0.3518 -0.4552  0.0146
  556SOL    HW1 1623   1.369   3.040   0.690 -0.9928 -0.7773 -1.0030
  556SOL    HW2 1624   1.320   3.155   0.795  0.9468 -0.9121  0.0823
  557SOL     OW 1625   1.966   1.363   3.380  0.2200 -0.1398  0.7179
  557SOL    HW1 1626   1.875   1.360   3.338  0.0438  1.9358  0.8376
  557SOL    HW2 1627   2.036   1.369   3.309  0.1417 -0.0478  0.6483
  558SOL     OW 1628   1.818   3.766   1.359 -0.4599 -0.0775 -0.0070
  558SOL    HW1 1629   1.759   3.703   1.408 -0.4111 -0.1546 -0.0469
  558SOL    HW2 1630   1.777   3.789   1.271 -0.3947 -0.1903 -0.0671
  559SOL     OW 1631   1.088   3.348   0.913 -0.5787 -0.3411 -0.5828
  559SOL    HW1 1632   1.136   3.318   0.830 -2.0634 -0.3237 -1.4794
  559SOL    HW2 1633   1.016   3.413   0.888 -1.7113 -1.1000  0.5980
  560SOL     OW 1634   0.785   3.033   1.293  0.1538  0.7040  0.1135
  560SOL    HW1 1635   0.806   2.937   1.313  0.5075  0.6567 -0.4632
  560SOL    HW2 1636   0.790   3.086   1.377  1.1085  0.4186  0.2541
  561SOL     OW 1637   0.443   2.994   1.733 -0.4415 -0.1007  0.6580
  561SOL    HW1 1638   0.351   3.028   1.716 -0.8145 -0.9164  1.0351
  561SOL    HW2 1639   0.503   3.021   1.657 -0.1001  3.5243  2.0078
  562SOL     OW 1640   1.313   3.478   1.648  0.0938 -0.2819  0.1266
  562SOL    HW1 1641   1.216   3.458   1.661 -0.1258  0.4256 -0.3763
  562SOL    HW2 1642   1.330   3.501   1.553  1.1582 -2.5571 -0.3059
  563SOL     OW 1643   0.222   2.331   1.140 -0.3272  0.1763 -0.2280
  563SOL    HW1 1644   0.264   2.329   1.231 -0.3490 -1.4276 -0.2199
  563SOL    HW2 1645   0.129   2.368   1.147 -0.6303 -0.6936  0.5633
  564SOL     OW 1646   1.404   3.341   2.033  0.5418  0.1989 -0.1434
  564SOL    HW1 1647   1.376   3.382   2.121 -0.0148 -0.4915  0.0078
  564SOL    HW2 1648   1.323   3.305   1.986  0.5189  2.3597 -1.9099
  565SOL     OW 1649   3.582   2.928   3.818 -0.1193  0.7269 -0.1475
  565SOL    HW1 1650   3.545   3.021   3.816 -1.5363  0.2080  1.1923
  565SOL    HW2 1651   3.594   2.896   3.724  1.3315  2.5957 -0.6651
  566SOL     OW 1652   1.252   3.431   2.624  0.3929 -0.4131 -0.0424
  566SOL    HW1 1653   1.319   3.383   2.567  0.3007  2.1011 -2.5221
  566SOL    HW2 1654   1.292   3.516   2.658 -1.1046  0.5421 -0.5428
  567SOL     OW 1655   0.427   3.097   1.002 -0.7633 -0.3889  0.0046
  567SOL    HW1 1656   0.501   3.164   1.012  0.7709 -2.0050  0.0007
  567SOL    HW2 1657   0.344   3.132   1.046 -0.7348  2.4974 -2.0021
  568SOL     OW 1658   0.432   0.430   0.486 -0.4859 -0.0117 -0.2683
  568SOL    HW1 1659   0.431   0.510   0.426  0.6703  0.4823  0.3415
  568SOL    HW2 1660   0.363   0.441   0.557 -2.1106 -0.7587 -1.6573
  569SOL     OW 1661   3.091   2.000   2.040  0.3016 -0.1063 -0.4969
  569SOL    HW1 1662   3.171   1.943   2.059  0.0554 -0.2031  0.2826
  569SOL    HW2 1663   3.112   2.063   1.966  1.8854  1.4337  1.1464
  570SOL     OW 1664   1.636   1.295   0.455  0.1905 -0.2116  0.2317
  570SOL    HW1 1665   1.664   1.390   0.460  0.6356 -0.3899  3.1364
  570SOL    HW2 1666   1.537   1.289   0.467  0.2120 -0.1339  0.4481
  571SOL     OW 1667   2.706   1.954   1.951  0.3520 -0.0436  0.0936
  571SOL    HW1 1668   2.761   1.871   1.942  1.2409  0.4856  0.4236
  571SOL    HW2 1669   2.650   1.967   1.869  1.7296  0.0904 -0.8606
  572SOL     OW 1670   2.107   3.116   0.551 -0.0974 -0.4422  0.2327
  572SOL    HW1 1671   2.193   3.081   0.587  1.1382  1.5137 -0.6555
  572SOL    HW2 1672   2.105   3.216   0.558 -1.6610 -0.3237 -1.1070
  573SOL     OW 1673   0.459   3.066   0.718  0.0090 -0.4663 -0.8189
  573SOL    HW1 1674   0.460   3.058   0.818 -1.0788 -0.4968 -0.7989
  573SOL    HW2 1675   0.375   3.113   0.689  1.1579  1.2267 -1.6155
  574SOL     OW 1676   3.672   0.986   1.224 -0.6736  0.5884 -0.7755
  574SOL    HW1 1677   3.609   1.056   1.191 -1.9245 -0.4707 -0.7538
  574SOL    HW2 1678   3.660   0.902   1.171 -1.0027 -0.3849  0.7476
  575SOL     OW 1679   0.663   2.454   3.423  0.1015 -0.8178  0.3826
  575SOL    HW1 1680   0.751   2.502   3.418 -0.1598 -0.2570  0.9972
  575SOL    HW2 1681   0.613   2.467   3.338 -0.0202  0.1205  0.5912
  576SOL     OW 1682   0.253   0.785   2.445 -0.2723 -0.3670  0.0278
  576SOL    HW1 1683   0.266   0.817   2.352  0.4698 -1.2768 -0.1908
  576SOL    HW2 1684   0.285   0.855   2.509  0.5086 -0.3065 -0.4231
  577SOL     OW 1685   0.664   1.572   3.288  0.6840 -0.2336 -0.3292
  577SOL    HW1 1686   0.718   1.488   3.295  1.5148  0.0724 -2.2791
  577SOL    HW2 1687   0.725   1.649   3.268 -0.0647  0.8624  1.3581
  578SOL     OW 1688   1.522   2.573   1.722 -0.5874 -0.0271 -0.1198
  578SOL    HW1 1689   1.617   2.544   1.719 -0.8680 -0.9292 -0.7669
  578SOL    HW2 1690   1.492   2.601   1.631 -1.3374 -1.1287 -0.2368
  579SOL     OW 1691   0.505   0.365   0.050 -0.1678  0.6560 -0.1730
  579SOL    HW1 1692   0.546   0.454   0.029 -0.3576  1.2548  1.7772
  579SOL    HW2 1693   0.493   0.356   0.149 -0.1756 -1.5561 -0.3191
  580SOL     OW 1694   0.916   3.232   0.532  0.0497 -0.2437 -0.2854
  580SOL    HW1 1695   0.964   3.313   0.497 -0.2672  1.8009  3.4218
  580SOL    HW2 1696   0.983   3.164   0.562  0.4237 -0.0240 -0.6132
  581SOL     OW 1697   2.662   1.900   1.442  0.9091  0.3184  0.6381
  581SOL    HW1 1698   2.742   1.899   1.502 -0.2579 -0.2395  2.2737
  581SOL    HW2 1699   2.688   1.867   1.351  2.2720 -1.1020  1.4903
  582SOL     OW 1700   3.727   3.363   1.429 -0.0803 -0.2537  0.0018
  582SOL    HW1 1701   3.824   3.367   1.456 -0.8460  0.9138  2.9490
  582SOL    HW2 1702   3.713   3.284   1.370  2.5835 -0.6971 -0.2010
  583SOL     OW 1703   0.065   2.764   0.734  0.1520 -0.4777  0.1669
  583SOL    HW1 1704   0.090   2.803   0.822  0.2362  2.3054 -1.0020
  583SOL    HW2 1705   0.026   2.673   0.749  0.1860 -0.1327  3.0482
  584SOL     OW 1706   1.210   2.700   1.867 -0.2613 -0.0111 -0.0612
  584SOL    HW1 1707   1.264   2.644   1.930 -1.2636 -0.5990  0.2992
  584SOL    HW2 1708   1.257   2.787   1.851  0.5543 -0.3158  0.6148
  585SOL     OW 1709   0.962   2.513   0.138 -0.1575  0.3393 -0.3480
  585SOL    HW1 1710   0.877   2.564   0.152  0.4135  0.6649  2.5977
  585SOL    HW2 1711   1.035   2.555   0.192  1.5280 -0.8282 -1.6288
  586SOL     OW 1712   3.132   2.610   0.720  0.0036 -0.1214 -0.1752
  586SOL    HW1 1713   3.204   2.565   0.667  0.8053 -1.2014  1.7027
  586SOL    HW2 1714   3.084   2.677   0.663  0.7886 -1.2138 -2.2079
  587SOL     OW 1715   3.331   2.513   0.585  0.6402 -0.4118  0.3948
  587SOL    HW1 1716   3.337   2.422   0.542 -1.9487 -0.9206  0.9655
  587SOL    HW2 1717   3.353   2.583   0.517  0.6963 -1.3775 -0.6090
  588SOL     OW 1718   3.457   0.893   1.426 -0.3262  0.5441  0.4281
  588SOL    HW1 1719   3.482   0.890   1.523 -0.5912  1.1036  0.5145
  588SOL    HW2 1720   3.441   0.987   1.398  0.0727  0.4166 -0.2489
  589SOL     OW 1721   2.992   3.321   2.325 -0.2278 -0.1212 -0.3240
  589SOL    HW1 1722   3.051   3.266   2.384 -0.6807 -1.0650 -0.7477
  589SOL    HW2 1723   3.048   3.370   2.258  0.1673 -0.0823  0.0279
  590SOL     OW 1724   1.025   1.445   2.422 -0.3968 -0.2460  0.0592
  590SOL    HW1 1725   1.120   1.428   2.447 -0.3497 -0.1043 -0.0207
  590SOL    HW2 1726   1.011   1.543   2.409 -0.8256 -0.1508  1.1703
  591SOL     OW 1727   2.454   1.404   3.827  0.3777  0.2501 -0.2094
  591SOL    HW1 1728   2.444   1.311   3.860 -2.9150  0.7318  0.5631
  591SOL    HW2 1729   2.458   1.405   3.727 -0.4655 -0.6967 -0.2611
  592SOL     OW 1730   2.060   2.027   0.965 -0.3051  0.8180  0.7373
  592SOL    HW1 1731   2.008   2.111   0.948 -0.9679 -0.0948 -2.4581
  592SOL    HW2 1732   2.000   1.959   1.007 -0.7780  0.8446  0.1208
  593SOL     OW 1733   0.580   3.001   1.493 -0.3138 -0.8545 -0.4403
  593SOL    HW1 1734   0.637   2.925   1.464 -2.3403 -1.9197 -1.8951
  593SOL    HW2 1735   0.530   3.038   1.414 -1.0427  0.5398  0.6227
  594SOL     OW 1736   1.157   2.188   1.411 -0.4597 -0.0347 -1.0099
  594SOL    HW1 1737   1.113   2.246   1.342  1.0980  0.4616 -1.6324
  594SOL    HW2 1738   1.254   2.175   1.387  0.3678  0.8553  1.5333
  595SOL     OW 1739   0.107   2.717   1.608  0.2911  0.5539 -0.6576
  595SOL    HW1 1740   0.105   2.808   1.649  2.5961  0.5871 -0.5357
  595SOL    HW2 1741   0.195   2.702   1.563 -0.3602 -1.3159 -1.3979
  596SOL     OW 1742   0.015   3.766   1.410  0.5823 -0.5338  0.2866
  596SOL    HW1 1743   0.058   3.826   1.343 -0.1904 -0.2030  0.0717
  596SOL    HW2 1744  -0.057   3.713   1.365  0.1010 -0.3552  0.8384
  597SOL     OW 1745   0.579   2.235   0.849 -0.0983  0.3257  0.1361
  597SOL    HW1 1746   0.481   2.226   0.865 -0.3713  1.6233 -0.6464
  597SOL    HW2 1747   0.605   2.331   0.854  0.5785  0.3802 -2.5218
  598SOL     OW 1748   0.895   3.143   3.494  0.2911 -0.2977  0.1234
  598SOL    HW1 1749   0.947   3.131   3.579 -1.9179  0.3466  1.6301
  598SOL    HW2 1750   0.801   3.114   3.508 -0.5747  1.4848 -1.5718
  599SOL     OW 1751   2.883   3.469   1.203 -0.3020 -0.0663  0.2750
  599SOL    HW1 1752   2.809   3.528   1.170  0.1947 -0.4917 -1.7280
  599SOL    HW2 1753   2.850   3.376   1.212 -0.1295 -0.1814 -0.2380
  600SOL     OW 1754   3.432   1.285   3.210  0.2713 -0.0070 -0.3043
  600SOL    HW1 1755   3.414   1.337   3.127 -1.0561  0.5082  0.2765
  600SOL    HW2 1756   3.530   1.276   3.223  0.5151  1.4113 -0.9933
  601SOL     OW 1757   0.168   1.775   1.040 -0.0510 -0.2646 -0.0275
  601SOL    HW1 1758   0.120   1.747   1.123  1.0062  1.2000  1.1264
  601SOL    HW2 1759   0.101   1.810   0.974 -0.8458 -0.9527  0.3861
  602SOL     OW 1760   0.615   3.786   0.999  0.0570 -0.4621  0.9282
  602SOL    HW1 1761   0.656   3.695   1.001 -1.6602 -1.2548  1.7259
  602SOL    HW2 1762   0.532   3.787   1.054 -1.0849  1.0373 -0.6872
  603SOL     OW 1763   0.661   2.622   2.789  0.1916  0.1728 -0.0321
  603SOL    HW1 1764   0.576   2.629   2.841  1.1138  1.2639  1.4317
  603SOL    HW2 1765   0.736   2.600   2.851  0.6968 -3.2678 -1.6262
  604SOL     OW 1766   0.510   3.120   3.807 -0.1898  0.4063  0.3548
  604SOL    HW1 1767   0.496   3.021   3.812  1.6977 -0.0397 -1.4926
  604SOL    HW2 1768   0.603   3.141   3.837  0.0515  1.3591 -0.9545
  605SOL     OW 1769   2.713   2.438   0.115 -0.0708 -0.0665  0.2996
  605SOL    HW1 1770   2.807   2.461   0.142  0.8279 -0.8050 -1.9158
  605SOL    HW2 1771   2.668   2.388   0.189  0.7054  1.6145  2.0083
  606SOL     OW 1772   0.269   2.046   0.428 -0.1933  0.5113  0.0990
  606SOL    HW1 1773   0.310   2.071   0.340  1.0158 -0.7890  0.2462
  606SOL    HW2 1774   0.321   1.970   0.468 -1.5899  0.1238  1.2608
  607SOL     OW 1775   1.550   2.286   2.718 -0.2073 -0.1359  0.4024
  607SOL    HW1 1776   1.495   2.312   2.639  0.6602  0.6667  0.0460
  607SOL    HW2 1777   1.578   2.368   2.767  0.6365 -0.5336  0.5933
  608SOL     OW 1778   0.898   2.000   0.576  0.4329  0.8500  0.2960
  608SOL    HW1 1779   0.814   2.054   0.573  0.6098  1.1258  0.2270
  608SOL    HW2 1780   0.879   1.912   0.619 -0.2667  0.2251 -1.2176
  609SOL     OW 1781   1.236   0.075   0.435  0.2690 -0.6623  0.0123
  609SOL    HW1 1782   1.332   0.102   0.425  0.0961 -0.1454 -0.2790
  609SOL    HW2 1783   1.177   0.143   0.391 -0.1146 -2.2535 -2.0991
  610SOL     OW 1784   0.427   1.567   3.463 -0.2752  0.3306  0.6609
  610SOL    HW1 1785   0.516   1.573   3.418  0.0470  0.3831  1.2886
  610SOL    HW2 1786   0.439   1.527   3.554 -0.9433  0.0114  0.6157
  611SOL     OW 1787   3.768   0.238   0.668  0.0014 -0.2263  0.3472
  611SOL    HW1 1788   3.811   0.182   0.597  1.2213 -0.9294  1.5899
  611SOL    HW2 1789   3.670   0.218   0.672  0.0148 -0.5842 -0.7427
  612SOL     OW 1790   0.251   3.572   3.803 -0.4237  0.5880  0.2155
  612SOL    HW1 1791   0.197   3.602   3.724 -0.3811  1.7138  0.5908
  612SOL    HW2 1792   0.307   3.493   3.777 -1.3694  0.1404 -0.5035
  613SOL     OW 1793   0.438   1.866   0.615 -0.2435  0.1164  0.1147
  613SOL    HW1 1794   0.415   1.896   0.708  0.1742 -0.0363  0.2751
  613SOL    HW2 1795   0.455   1.767   0.616  0.3939  0.2200  0.0089
  614SOL     OW 1796   0.919   0.211   0.799 -0.3932 -0.5428 -0.5883
  614SOL    HW1 1797   0.965   0.260   0.873 -0.1810  0.9238 -1.6551
  614SOL    HW2 1798   0.950   0.115   0.798 -0.6279 -0.6737  1.3738
  615SOL     OW 1799   1.759   3.051   3.802  0.3827 -0.2725 -0.5395
  615SOL    HW1 1800   1.750   3.022   3.897 -0.4862 -2.2145 -1.1429
  615SOL    HW2 1801   1.746   3.149   3.795  1.4467  0.0565  1.4440
  616SOL     OW 1802   0.377   0.427   1.545 -0.1964  0.5283  0.2891
  616SOL    HW1 1803   0.468   0.469   1.541  0.3089 -0.6646 -1.4739
  616SOL    HW2 1804   0.383   0.339   1.592 -0.8688  1.3758  2.0581
  617SOL     OW 1805   0.565   3.655   3.225  0.3024 -0.0207 -0.0261
  617SOL    HW1 1806   0.481   3.622   3.182  0.6717 -2.2883  0.8691
  617SOL    HW2 1807   0.542   3.700   3.312 -0.0640  0.3693 -0.3200
  618SOL     OW 1808   1.166   1.808   0.603  0.0656 -0.4204 -0.2213
  618SOL    HW1 1809   1.232   1.760   0.545 -0.3112 -1.8177  0.4327
  618SOL    HW2 1810   1.075   1.803   0.562  0.0473 -0.1589 -0.2109
  619SOL     OW 1811   2.307   2.176   0.432  0.0705 -0.4593 -0.2369
  619SOL    HW1 1812   2.337   2.095   0.484 -1.6047 -0.1503  1.3026
  619SOL    HW2 1813   2.258   2.238   0.493  0.0505  1.0486 -1.7284
  620SOL     OW 1814   1.906   2.792   0.201  0.1443 -0.4189  0.6953
  620SOL    HW1 1815   1.856   2.716   0.159  0.1566  0.0995 -0.2987
  620SOL    HW2 1816   1.842   2.864   0.227  0.2499 -0.2492  0.4909
  621SOL     OW 1817   3.691   2.791   1.059 -0.2028  0.2306 -0.0962
  621SOL    HW1 1818   3.780   2.834   1.043  1.6925 -2.9521  0.8340
  621SOL    HW2 1819   3.656   2.817   1.148  0.7435  0.1321  0.3154
  622SOL     OW 1820   1.448   1.934   3.702  0.0636 -0.0064  0.3564
  622SOL    HW1 1821   1.422   1.883   3.784  2.5078 -0.3113  1.0061
  622SOL    HW2 1822   1.371   1.991   3.673 -2.7993 -3.8087 -0.3279
  623SOL     OW 1823   0.973   2.363   1.252  0.0385  0.3554 -0.3556
  623SOL    HW1 1824   1.018   2.431   1.195 -0.0020  0.5985 -0.1026
  623SOL    HW2 1825   0.876   2.359   1.229  0.0241  0.4467 -0.3112
  624SOL     OW 1826   2.944   2.372   1.906  0.8112 -0.2713 -0.2023
  624SOL    HW1 1827   3.022   2.399   1.850  1.5151 -1.3152  0.2478
  624SOL    HW2 1828   2.871   2.337   1.847  1.8129 -2.0312 -0.4818
  625SOL     OW 1829   1.680   1.229   1.124  0.1153 -0.3557  0.1224
  625SOL    HW1 1830   1.771   1.251   1.158 -0.5202  1.1656  0.9066
  625SOL    HW2 1831   1.656   1.290   1.049 -0.3251 -0.6172  0.0439
  626SOL     OW 1832   1.845   2.874   1.821  0.7745 -0.0970 -0.4850
  626SOL    HW1 1833   1.935   2.917   1.832  0.6975 -0.3979  1.5244
  626SOL    HW2 1834   1.774   2.943   1.830  0.7300 -0.2413  0.2741
  627SOL     OW 1835   3.480   2.286   1.518 -0.5984  0.1012  0.0950
  627SOL    HW1 1836   3.419   2.296   1.440 -2.0616 -1.8063  0.8978
  627SOL    HW2 1837   3.551   2.218   1.497 -0.0871  0.6661 -0.0519
  628SOL     OW 1838   1.334   0.126   2.918  0.1023  0.5854 -0.1992
  628SOL    HW1 1839   1.288   0.037   2.918 -0.9623  1.0476  2.5671
  628SOL    HW2 1840   1.266   0.198   2.904  0.5268  1.0918  0.3037
  629SOL     OW 1841   0.699   2.365   1.524  0.0304  0.5011  0.1925
  629SOL    HW1 1842   0.697   2.270   1.555 -0.2939  0.3934 -0.1496
  629SOL    HW2 1843   0.621   2.414   1.563  1.7031  1.3800  2.6827
  630SOL     OW 1844   3.772   3.172   1.235  0.4371  0.0350  0.3481
  630SOL    HW1 1845   3.795   3.115   1.315 -0.8581  0.5128  1.0835
  630SOL    HW2 1846   3.683   3.145   1.200  0.2012  1.0234  0.1663
  631SOL     OW 1847   1.676   2.660   3.563  0.3681 -0.7797  0.4147
  631SOL    HW1 1848   1.712   2.613   3.644  0.7309  0.0415  0.7399
  631SOL    HW2 1849   1.652   2.754   3.587 -0.8980 -0.9563 -0.0873
  632SOL     OW 1850   3.803   3.440   0.452 -0.4397  0.2086 -0.1893
  632SOL    HW1 1851   3.768   3.529   0.422 -1.8635 -0.4093 -0.4563
  632SOL    HW2 1852   3.837   3.448   0.546  0.0905  1.1813 -0.4483
  633SOL     OW 1853   1.864   3.600   2.465  0.0192 -0.1670 -0.4786
  633SOL    HW1 1854   1.940   3.644   2.417  0.0806 -0.5068 -0.7001
  633SOL    HW2 1855   1.900   3.545   2.541 -0.2631  3.0114  2.1760
  634SOL     OW 1856   3.605   3.461   1.890  0.3667 -0.2133 -0.2326
  634SOL    HW1 1857   3.606   3.556   1.923 -2.1242  0.1491 -1.0153
  634SOL    HW2 1858   3.624   3.399   1.966 -0.8596  0.8065  0.9433
  635SOL     OW 1859   0.705   3.288   2.915 -0.1607 -0.1136  0.6137
  635SOL    HW1 1860   0.619   3.310   2.869 -1.1155 -0.3476  2.2001
  635SOL    HW2 1861   0.711   3.189   2.929  0.5015 -0.1236  0.2660
  636SOL     OW 1862   0.986   0.559   0.143 -0.1872  0.1367 -0.6460
  636SOL    HW1 1863   0.922   0.482   0.137  0.2555 -0.3105  0.2127
  636SOL    HW2 1864   1.040   0.550   0.226 -0.4164  1.6047 -0.3234
  637SOL     OW 1865   2.647   3.191   0.340 -0.1820 -0.4253  0.5006
  637SOL    HW1 1866   2.723   3.230   0.393 -0.7578  2.3282 -0.5149
  637SOL    HW2 1867   2.598   3.265   0.293 -0.4248 -2.5545 -2.9423
  638SOL     OW 1868   0.060   3.327   2.470  0.1182 -0.1768  0.0837
  638SOL    HW1 1869   0.009   3.401   2.426  1.4729  1.0975  0.5850
  638SOL    HW2 1870   0.038   3.241   2.425 -0.7859  0.6562 -1.1430
  639SOL     OW 1871   3.794   2.531   2.792  0.2356 -0.1455 -0.0978
  639SOL    HW1 1872   3.764   2.436   2.802  0.7990 -0.2754  0.4413
  639SOL    HW2 1873   3.796   2.555   2.695 -0.0490 -0.6428 -0.2314
  640SOL     OW 1874   0.294   2.677   1.393 -0.4071  0.0037  0.0901
  640SOL    HW1 1875   0.211   2.722   1.360 -0.5921  0.5084  1.2165
  640SOL    HW2 1876   0.323   2.609   1.326 -1.6600 -0.1009 -0.3750
  641SOL     OW 1877   0.263   3.152   1.589  0.0892 -0.1137  0.0301
  641SOL    HW1 1878   0.217   3.157   1.501  1.3003 -1.2562 -0.6947
  641SOL    HW2 1879   0.341   3.215   1.590 -0.9152  1.1920  0.9550
  642SOL     OW 1880   3.318   3.058   3.800  0.0324  0.6812  0.0308
  642SOL    HW1 1881   3.293   2.972   3.755 -2.3194  1.1574  0.3240
  642SOL    HW2 1882   3.293   3.054   3.896 -0.0677  1.6668  0.0572
  643SOL     OW 1883   0.687   3.498   0.762 -0.4427 -0.3438 -0.6265
  643SOL    HW1 1884   0.683   3.573   0.696  3.8464 -1.5101 -2.6352
  643SOL    HW2 1885   0.690   3.411   0.713  1.6041 -1.3465  1.1111
  644SOL     OW 1886   3.792   3.015   0.155  0.2157 -0.3056 -0.6556
  644SOL    HW1 1887   3.719   2.962   0.112 -1.3369  0.2428  1.1471
  644SOL    HW2 1888   3.864   2.953   0.186 -0.5503 -1.1412 -0.4846
  645SOL     OW 1889   0.538   2.959   1.217  0.3548  0.3786 -0.4978
  645SOL    HW1 1890   0.628   3.001   1.209  0.6113 -0.1895 -0.5809
  645SOL    HW2 1891   0.485   2.977   1.134  0.2399  1.0451 -0.2930
  646SOL     OW 1892   1.033   2.157   2.719 -0.0189  0.7142  0.5841
  646SOL    HW1 1893   0.980   2.074   2.738  1.0411 -0.2926 -0.6732
  646SOL    HW2 1894   1.131   2.137   2.728  0.2221  2.4406  2.4677
  647SOL     OW 1895   1.797   3.177   1.120 -0.0248  0.1004  0.1716
  647SOL    HW1 1896   1.853   3.146   1.197  1.2076  2.0208  0.1227
  647SOL    HW2 1897   1.724   3.237   1.153  0.2859  0.6368 -0.0992
  648SOL     OW 1898   0.475   0.691   1.211 -0.1500 -0.3433  0.2475
  648SOL    HW1 1899   0.516   0.608   1.250  0.6879  0.7205  1.7474
  648SOL    HW2 1900   0.375   0.684   1.216 -0.1219 -1.5648 -0.3766
  649SOL     OW 1901   1.490   3.237   0.516  0.0082  0.3399  0.0955
  649SOL    HW1 1902   1.494   3.160   0.452  1.1729  1.2782 -0.9890
  649SOL    HW2 1903   1.426   3.215   0.589 -1.7176 -0.5866 -1.6051
  650SOL     OW 1904   1.020   2.801   1.092  0.2844 -0.0954 -0.1974
  650SOL    HW1 1905   0.992   2.807   1.188 -0.3590 -0.4473 -0.3616
  650SOL    HW2 1906   1.012   2.891   1.050 -2.3471 -0.4815 -0.7055
  651SOL     OW 1907   3.698   1.584   3.764  0.1545 -0.1178 -0.0640
  651SOL    HW1 1908   3.607   1.607   3.728 -0.8696 -3.1925  0.2577
  651SOL    HW2 1909   3.756   1.553   3.689  0.2998  0.0159 -0.0064
  652SOL     OW 1910   2.349   2.472   1.009 -0.0266 -0.3480  0.3292
  652SOL    HW1 1911   2.265   2.473   1.063 -0.8785 -1.3121 -0.9130
  652SOL    HW2 1912   2.400   2.388   1.029 -0.9094 -1.2660 -1.1483
  653SOL     OW 1913   1.448   3.763   1.235  0.1257  0.2886 -0.0812
  653SOL    HW1 1914   1.353   3.783   1.261  0.4013  1.1536  0.2597
  653SOL    HW2 1915   1.485   3.694   1.297  0.0421  0.6785  0.4095
  654SOL     OW 1916   1.088   2.833   0.420 -0.1069  0.9339 -0.1293
  654SOL    HW1 1917   1.009   2.779   0.448 -0.1199  0.5189 -0.9366
  654SOL    HW2 1918   1.116   2.893   0.495 -1.2126  1.1232  0.1448
  655SOL     OW 1919   0.118   1.195   0.937  1.4159 -0.3953 -0.1742
  655SOL    HW1 1920   0.026   1.158   0.923 -1.3256  3.2527  4.9186
  655SOL    HW2 1921   0.169   1.134   0.998  0.0472  0.1240  1.5935
  656SOL     OW 1922   3.343   3.422   1.072  0.4631 -0.6998 -0.1781
  656SOL    HW1 1923   3.304   3.421   0.980 -0.6391 -1.0852  0.2837
  656SOL    HW2 1924   3.386   3.511   1.088 -1.8767  0.4898 -0.0410
  657SOL     OW 1925   0.699   2.109   0.203 -0.2912  0.0795 -0.1614
  657SOL    HW1 1926   0.795   2.096   0.227 -0.1204  1.9083  0.2613
  657SOL    HW2 1927   0.691   2.125   0.105 -0.3870 -1.7875 -0.4965
  658SOL     OW 1928   0.860   3.742   0.358 -0.0312 -0.0575 -0.7113
  658SOL    HW1 1929   0.948   3.725   0.403 -0.3847 -1.7908 -0.5989
  658SOL    HW2 1930   0.811   3.813   0.408  0.6954 -0.0861  0.0851
  659SOL     OW 1931   1.099   2.736   2.790  0.0786  0.1154  0.2860
  659SOL    HW1 1932   1.054   2.800   2.727 -1.0867 -0.4877  0.4777
  659SOL    HW2 1933   1.117   2.650   2.742  0.6771  0.2101  0.3303
  660SOL     OW 1934   2.827   1.921   3.348  0.0777 -0.0263 -0.1713
  660SOL    HW1 1935   2.873   2.009   3.362  2.3156 -1.3854  1.6079
  660SOL    HW2 1936   2.870   1.872   3.273  0.3231 -0.4974  0.2657
  661SOL     OW 1937   1.811   2.682   1.601 -0.6223  0.2443  0.1795
  661SOL    HW1 1938   1.816   2.737   1.684  0.8299  0.5813 -0.1039
  661SOL    HW2 1939   1.878   2.608   1.606  0.5574  1.1695 -1.3133
  662SOL     OW 1940   3.758   2.546   3.839  0.2220 -0.6134  0.3951
  662SOL    HW1 1941   3.756   2.626   3.779  0.2846 -1.3471 -0.6143
  662SOL    HW2 1942   3.853   2.522   3.860  0.1942 -0.2068  1.0077
  663SOL     OW 1943   1.207   0.660   1.257 -0.5256  0.2225 -0.1747
  663SOL    HW1 1944   1.241   0.580   1.307  1.8068 -0.4645 -2.5987
  663SOL    HW2 1945   1.279   0.729   1.254 -1.5107  1.2521 -0.4847
  664SOL     OW 1946   0.563   2.565   1.164 -0.3678 -0.0617 -0.5928
  664SOL    HW1 1947   0.585   2.640   1.226  0.5968 -0.4690 -0.4266
  664SOL    HW2 1948   0.469   2.574   1.132 -0.7381  0.3819  0.5983
  665SOL     OW 1949   0.617   3.605   1.783  0.1446 -0.3137  0.1382
  665SOL    HW1 1950   0.668   3.657   1.715 -0.7757 -0.3372 -0.5903
  665SOL    HW2 1951   0.641   3.508   1.776 -0.0687 -0.3416 -0.2874
  666SOL     OW 1952   0.374   1.914   0.903  0.2432  0.1058  0.1782
  666SOL    HW1 1953   0.298   1.877   0.957 -0.9320 -1.5646 -2.4222
  666SOL    HW2 1954   0.370   2.014   0.906 -2.2687  0.0889 -0.0835
  667SOL     OW 1955   0.735   3.836   3.748 -1.0043 -0.2180  0.1663
  667SOL    HW1 1956   0.741   3.787   3.660 -1.6636  0.8254 -0.4829
  667SOL    HW2 1957   0.738   3.770   3.823 -0.1105 -1.1075 -0.6201
  668SOL     OW 1958   3.275   2.703   0.365  0.0083  0.5272  0.0783
  668SOL    HW1 1959   3.176   2.699   0.353 -0.1744  1.5246  1.1784
  668SOL    HW2 1960   3.319   2.681   0.277 -1.2026  2.1269 -0.9887
  669SOL     OW 1961   1.090   3.791   1.117  0.0147 -0.0527  0.1618
  669SOL    HW1 1962   1.129   3.742   1.038 -2.1970  0.8661 -1.5954
  669SOL    HW2 1963   1.111   3.888   1.109 -0.3217  0.0620  0.6724
  670SOL     OW 1964   0.812   3.142   1.038 -0.0605  0.2009  0.1737
  670SOL    HW1 1965   0.734   3.204   1.029  0.8409  1.3775  0.2636
  670SOL    HW2 1966   0.833   3.128   1.134 -0.1977 -0.1754  0.1509
  671SOL     OW 1967   1.824   3.158   0.853 -0.0677 -0.0904 -0.1058
  671SOL    HW1 1968   1.853   3.068   0.821 -3.2187 -0.6681 -1.8122
  671SOL    HW2 1969   1.822   3.158   0.953  1.5228 -1.3321 -0.0323
  672SOL     OW 1970   0.025   0.038   0.488 -0.3904  0.1423  0.1256
  672SOL    HW1 1971   0.067   0.082   0.409 -0.6087  1.3049  0.6254
  672SOL    HW2 1972   0.094  -0.016   0.536  0.1146  0.6124 -0.0486
  673SOL     OW 1973   0.136   0.911   3.778  0.3149 -0.2131 -0.3368
  673SOL    HW1 1974   0.039   0.907   3.801  0.8158 -2.6897  1.7664
  673SOL    HW2 1975   0.150   0.975   3.702 -2.5658  2.2312  1.0292
  674SOL     OW 1976   1.182   2.647   2.340 -0.0873 -0.1584  0.0435
  674SOL    HW1 1977   1.135   2.566   2.304 -0.5363 -0.9665  2.3171
  674SOL    HW2 1978   1.123   2.694   2.405  1.0975  0.6186  0.5886
  675SOL     OW 1979   1.107   1.371   2.842 -1.1277  0.1346 -0.4779
  675SOL    HW1 1980   1.138   1.384   2.936 -2.7358  0.0051  0.1031
  675SOL    HW2 1981   1.080   1.275   2.829 -0.2985 -0.0092 -1.2876
  676SOL     OW 1982   1.046   2.417   2.274 -0.4126 -0.4157 -0.2752
  676SOL    HW1 1983   1.135   2.378   2.254 -0.2909 -0.4745  0.3560
  676SOL    HW2 1984   1.011   2.379   2.360 -1.5245 -1.1963 -1.0575
  677SOL     OW 1985   2.939   3.771   2.786 -0.3748 -0.4657  0.2553
  677SOL    HW1 1986   3.033   3.804   2.795 -0.8564  1.3749 -0.9572
  677SOL    HW2 1987   2.911   3.726   2.871  0.7473  1.1988  1.5669
  678SOL     OW 1988   2.435   0.580   2.344 -0.3728 -0.1286  0.1215
  678SOL    HW1 1989   2.451   0.527   2.261 -0.1229 -0.0465  0.1166
  678SOL    HW2 1990   2.446   0.520   2.424  0.2336 -0.0108  0.1294
  679SOL     OW 1991   1.567   2.918   3.643  0.0068  0.0042 -0.1717
  679SOL    HW1 1992   1.621   2.985   3.693 -0.0094  0.0803 -0.2555
  679SOL    HW2 1993   1.482   2.960   3.612  1.6933  1.2013 -3.7260
  680SOL     OW 1994   0.867   0.135   0.201  0.2367  0.1514 -0.4395
  680SOL    HW1 1995   0.793   0.107   0.261 -1.3136  1.0879 -1.8201
  680SOL    HW2 1996   0.876   0.070   0.125 -0.7437  1.2045 -1.5075
  681SOL     OW 1997  -0.004   1.074   0.385  1.0731  0.5136  0.3617
  681SOL    HW1 1998  -0.039   1.156   0.340 -0.3822 -0.3563 -0.1630
  681SOL    HW2 1999   0.086   1.093   0.424  0.6238  2.4374  0.5387
  682SOL     OW 2000   1.743   0.175   3.316 -0.7728 -0.2388  0.4893
  682SOL    HW1 2001   1.662   0.124   3.347 -2.8216  1.5511 -1.5295
  682SOL    HW2 2002   1.719   0.230   3.236  3.1481 -1.5701 -1.8561
  683SOL     OW 2003   0.383   3.578   0.412 -0.4533 -0.5169  0.7384
  683SOL    HW1 2004   0.396   3.602   0.315 -0.6140  1.8606  1.2433
  683SOL    HW2 2005   0.344   3.486   0.418  1.8048 -1.7353 -1.3396
  684SOL     OW 2006   2.595   3.644   3.240 -0.0231  0.1499  0.1719
  684SOL    HW1 2007   2.661   3.583   3.284 -1.6408 -2.0236 -0.2046
  684SOL    HW2 2008   2.544   3.694   3.310  0.2995 -0.0621  0.5634
  685SOL     OW 2009   1.309   0.002   0.011 -0.1497 -0.0027  0.3535
  685SOL    HW1 2010   1.387  -0.027   0.067  0.4575  1.1397  0.1267
  685SOL    HW2 2011   1.261   0.076   0.056 -2.3327 -1.9388  1.4281
  686SOL     OW 2012   0.276   1.442   1.414  0.3605  0.1688  0.3755
  686SOL    HW1 2013   0.375   1.449   1.426  0.3733 -0.9979  1.1663
  686SOL    HW2 2014   0.239   1.377   1.480 -0.8359  0.0523 -0.3733
  687SOL     OW 2015   3.194   2.494   1.759 -0.1405 -0.3154 -1.0885
  687SOL    HW1 2016   3.222   2.570   1.818 -1.3374 -0.1789 -0.6633
  687SOL    HW2 2017   3.271   2.432   1.745  0.8727  0.9901 -1.4803
  688SOL     OW 2018   1.653   0.197   0.904 -0.1135  0.1881 -0.2141
  688SOL    HW1 2019   1.725   0.262   0.930  1.1516 -1.0196 -0.5362
  688SOL    HW2 2020   1.645   0.195   0.804 -2.7758  2.5220 -0.1762
  689SOL     OW 2021   0.849   1.934   2.768  0.1187 -0.0697 -0.0074
  689SOL    HW1 2022   0.840   1.881   2.683  0.4968 -1.4244  0.7694
  689SOL    HW2 2023   0.837   1.873   2.847 -0.0781  1.1403  0.9181
  690SOL     OW 2024   3.499   2.727   3.078  0.1583  0.1184 -0.0796
  690SOL    HW1 2025   3.550   2.645   3.054 -0.8429 -0.8169  0.8289
  690SOL    HW2 2026   3.475   2.724   3.175 -2.2581  0.1334 -0.6149
  691SOL     OW 2027   0.224   3.759   2.599 -0.1444 -0.0519 -0.3883
  691SOL    HW1 2028   0.271   3.847   2.609  2.1842 -1.2284 -0.4094
  691SOL    HW2 2029   0.127   3.775   2.579  0.4498  2.4966 -1.5997
  692SOL     OW 2030   0.133   2.966   1.719 -0.3942 -0.0203  0.2182
  692SOL    HW1 2031   0.176   3.044   1.675 -0.8561  0.8617  1.2914
  692SOL    HW2 2032   0.154   2.966   1.816 -1.0691 -0.7773  0.3799
  693SOL     OW 2033   2.192   1.330   2.438 -0.5068  0.0162  0.1607
  693SOL    HW1 2034   2.146   1.275   2.368 -0.1595  1.7026 -1.4744
  693SOL    HW2 2035   2.284   1.355   2.406  0.3478 -0.5936  1.9922
  694SOL     OW 2036   0.086   0.773   1.794 -1.0498 -0.2236  0.3000
  694SOL    HW1 2037   0.083   0.787   1.695  1.5773  0.0952  0.2129
  694SOL    HW2 2038   0.181   0.765   1.824 -1.5956  2.4891  3.2045
  695SOL     OW 2039   1.824   3.101   2.228 -0.1944 -0.2514 -0.2496
  695SOL    HW1 2040   1.852   3.024   2.170 -0.6449  0.1763 -1.0531
  695SOL    HW2 2041   1.869   3.094   2.317  0.7590 -0.7505 -0.7535
  696SOL     OW 2042   3.305   3.606   2.599  0.4690 -0.0502  0.2562
  696SOL    HW1 2043   3.244   3.583   2.675  1.6154  0.1703  1.2681
  696SOL    HW2 2044   3.395   3.630   2.635  0.8452  0.7097 -1.1395
  697SOL     OW 2045   1.773   0.018   1.711  0.2608  0.8070 -0.9347
  697SOL    HW1 2046   1.701   0.000   1.644  0.7962 -1.3246 -1.0037
  697SOL    HW2 2047   1.862   0.018   1.666  0.3936  3.1905 -0.8088
  698SOL     OW 2048   2.000   3.461   2.653  0.3214  0.2639 -0.0076
  698SOL    HW1 2049   1.927   3.438   2.716  1.2987 -0.5117  0.8897
  698SOL    HW2 2050   2.083   3.482   2.704  0.7424  1.0916 -0.9961
  699SOL     OW 2051   0.569   1.451   0.763  0.1209  0.3001  0.1792
  699SOL    HW1 2052   0.650   1.398   0.788  0.8722  1.1383 -0.4539
  699SOL    HW2 2053   0.560   1.530   0.825  0.4088  0.8184 -0.4335
  700SOL     OW 2054   1.117   0.123   2.582  0.1029 -0.3199 -0.0797
  700SOL    HW1 2055   1.188   0.185   2.547  0.8446 -0.2624  1.4484
  700SOL    HW2 2056   1.064   0.088   2.505  1.3452  0.1661 -1.2195
  701SOL     OW 2057   2.185   2.148   3.092  0.3049  0.5722 -0.3552
  701SOL    HW1 2058   2.149   2.220   3.151  0.6266 -0.1305  0.7373
  701SOL    HW2 2059   2.111   2.084   3.070  0.5495 -0.1147  0.7467
  702SOL     OW 2060   1.290   2.028   2.804 -0.6718  0.0845  0.2626
  702SOL    HW1 2061   1.327   1.956   2.744 -0.9252  1.0705 -1.1164
  702SOL    HW2 2062   1.358   2.051   2.873 -0.3810 -1.1025  0.3952
  703SOL     OW 2063   3.595   2.459   3.034  0.2368  0.3313  0.0264
  703SOL    HW1 2064   3.540   2.419   2.961  0.2277  2.0310 -0.9484
  703SOL    HW2 2065   3.678   2.404   3.046 -0.8350 -1.2763  0.3430
  704SOL     OW 2066   1.190   3.371   1.163 -0.0430  0.1242  0.1197
  704SOL    HW1 2067   1.128   3.426   1.219  1.0979  0.6353  0.9188
  704SOL    HW2 2068   1.158   3.372   1.068 -0.0392  2.2155  0.0979
  705SOL     OW 2069   1.574   3.123   2.887 -0.2472  0.1713 -0.0939
  705SOL    HW1 2070   1.617   3.139   2.798 -0.5277 -0.1321 -0.2862
  705SOL    HW2 2071   1.514   3.200   2.908  0.4799  0.6534  0.2321
  706SOL     OW 2072   0.657   1.170   0.140  0.2948 -0.0988 -0.1708
  706SOL    HW1 2073   0.632   1.075   0.120  0.1126 -0.5180  1.8464
  706SOL    HW2 2074   0.583   1.230   0.113  0.5875 -0.4483 -1.8771
  707SOL     OW 2075   0.823   0.430   2.349 -0.0103  0.1432  0.0676
  707SOL    HW1 2076   0.784   0.346   2.309 -2.1029  0.3768  1.4532
  707SOL    HW2 2077   0.805   0.431   2.447  1.4777  1.4572  0.3597
  708SOL     OW 2078   1.659   3.825   1.966  0.1032 -0.2260  0.4620
  708SOL    HW1 2079   1.693   3.835   1.872 -0.8200 -0.9929  0.0308
  708SOL    HW2 2080   1.733   3.841   2.030  1.2104 -1.5123 -0.4416
  709SOL     OW 2081   1.343   2.099   2.091  0.2383 -0.3258  0.2077
  709SOL    HW1 2082   1.380   2.156   2.017  3.6690 -1.2448  1.0118
  709SOL    HW2 2083   1.290   2.024   2.053  2.9792 -1.5218 -1.5256
  710SOL     OW 2084   0.607   2.757   3.552  0.1399 -0.0798  0.5291
  710SOL    HW1 2085   0.665   2.837   3.536  1.4824 -0.8834  1.1417
  710SOL    HW2 2086   0.528   2.760   3.491  1.0471  0.8482 -0.6479
  711SOL     OW 2087   0.443   3.189   1.931 -0.4383  0.0155  0.1050
  711SOL    HW1 2088   0.345   3.209   1.935 -0.3658  0.8033 -1.2130
  711SOL    HW2 2089   0.457   3.103   1.881 -0.4455  0.0323  0.0739
  712SOL     OW 2090   0.923   1.361   3.691 -0.1556 -0.0061 -0.0638
  712SOL    HW1 2091   0.931   1.307   3.774 -0.8473 -0.9748 -0.5935
  712SOL    HW2 2092   0.909   1.299   3.613 -2.1752  0.9483 -0.5328
  713SOL     OW 2093   1.338   3.640   2.748  0.2736  0.0139  0.0572
  713SOL    HW1 2094   1.425   3.691   2.744  0.9108 -1.0204  0.3404
  713SOL    HW2 2095   1.262   3.705   2.753  1.0695  0.9326  0.6703
  714SOL     OW 2096   2.579   1.852   0.247 -0.3953  0.3766 -0.2194
  714SOL    HW1 2097   2.573   1.911   0.166 -0.2010  2.1216  0.9832
  714SOL    HW2 2098   2.675   1.830   0.265 -0.1621  2.1643  0.9782
  715SOL     OW 2099   0.700   2.620   0.198 -0.1133 -0.1063 -0.2921
  715SOL    HW1 2100   0.695   2.716   0.227  1.1528 -0.3025  0.6378
  715SOL    HW2 2101   0.680   2.614   0.100 -1.9431  0.8779 -0.0239
  716SOL     OW 2102   1.654   2.816   2.278  0.3337  0.0278 -0.0407
  716SOL    HW1 2103   1.608   2.904   2.265 -0.6108 -0.3349  0.6745
  716SOL    HW2 2104   1.588   2.750   2.315  1.2677 -0.7085  0.3382
  717SOL     OW 2105   0.826   2.836   3.775  0.1577  0.6088 -0.2359
  717SOL    HW1 2106   0.810   2.921   3.824  0.1449  0.2751  0.3455
  717SOL    HW2 2107   0.743   2.780   3.777  0.5454  0.0440  0.4648
  718SOL     OW 2108   0.005   0.526   3.757 -0.2325  0.0590  0.0902
  718SOL    HW1 2109   0.098   0.562   3.754  0.0769 -0.6550  0.7856
  718SOL    HW2 2110  -0.017   0.497   3.850 -1.2397  0.4398 -0.0141
  719SOL     OW 2111   1.325   3.154   0.963  0.8039 -0.0986 -0.0274
  719SOL    HW1 2112   1.372   3.077   1.005  0.2975  0.4737  1.6414
  719SOL    HW2 2113   1.314   3.228   1.030  0.4545  1.0739 -1.3191
  720SOL     OW 2114   2.459   2.679   3.031  0.5130 -0.2400  0.0628
  720SOL    HW1 2115   2.473   2.650   3.126 -1.2729  0.9617  0.7536
  720SOL    HW2 2116   2.422   2.772   3.030 -0.4769 -0.5995 -1.7665
  721SOL     OW 2117   1.816   3.458   3.124  0.5849 -0.5483  0.2303
  721SOL    HW1 2118   1.784   3.364   3.131  1.2343 -1.0096 -1.9959
  721SOL    HW2 2119   1.802   3.506   3.211 -2.2217 -1.8935  0.6228
  722SOL     OW 2120   1.447   1.262   3.612  0.5376  0.6056 -0.1299
  722SOL    HW1 2121   1.461   1.265   3.711  2.2026  0.9385 -0.3453
  722SOL    HW2 2122   1.519   1.316   3.567  0.5232 -0.5339 -1.5803
  723SOL     OW 2123   1.601   1.420   2.072  0.3883 -0.0421  0.8869
  723SOL    HW1 2124   1.562   1.430   2.164 -0.5448 -0.9947  0.6110
  723SOL    HW2 2125   1.625   1.324   2.057  1.9801  0.3498  0.6845
  724SOL     OW 2126   3.446   3.833   2.258  0.2510 -0.2356  0.2687
  724SOL    HW1 2127   3.393   3.916   2.242  0.2747 -0.7159 -2.9431
  724SOL    HW2 2128   3.385   3.759   2.283 -0.5549 -0.4684 -2.1236
  725SOL     OW 2129   1.301   3.475   2.252 -0.1476  0.0859 -0.0868
  725SOL    HW1 2130   1.352   3.410   2.309 -0.4024 -0.6970 -0.7239
  725SOL    HW2 2131   1.203   3.465   2.271 -0.1475  0.7265  0.2576
  726SOL     OW 2132   0.472   0.099   3.815  0.1995 -0.3937 -0.2105
  726SOL    HW1 2133   0.566   0.065   3.819  0.0447 -0.7062  1.2063
  726SOL    HW2 2134   0.472   0.198   3.831  0.2970 -0.3609 -0.4065
  727SOL     OW 2135   1.350   2.687   3.333  0.0034 -0.3979 -0.2455
  727SOL    HW1 2136   1.383   2.602   3.292  1.9159 -0.2541  0.8749
  727SOL    HW2 2137   1.401   2.764   3.295 -1.6764  0.2929 -1.2077
  728SOL     OW 2138   1.439   0.057   2.324 -0.6981 -0.0835  0.2983
  728SOL    HW1 2139   1.533   0.089   2.334 -0.3965 -1.1683  1.0404
  728SOL    HW2 2140   1.439  -0.037   2.292 -1.5568  0.1078 -0.3082
  729SOL     OW 2141   1.508   3.476   0.363  0.0754  0.3250 -0.6103
  729SOL    HW1 2142   1.515   3.405   0.433 -1.2060  0.7306 -0.0490
  729SOL    HW2 2143   1.463   3.438   0.282 -0.4220  0.4353 -0.3879
  730SOL     OW 2144   1.647   3.084   1.693  0.6337  0.1467  0.3897
  730SOL    HW1 2145   1.590   3.070   1.774  0.7621  0.0408  0.4633
  730SOL    HW2 2146   1.704   3.165   1.705  0.9929 -0.1331  0.6051
  731SOL     OW 2147   3.623   2.894   2.056  0.3978  0.2062 -0.0371
  731SOL    HW1 2148   3.597   2.909   2.152  1.7395  1.2088  0.2042
  731SOL    HW2 2149   3.596   2.802   2.028 -1.1393  0.3347  0.9121
  732SOL     OW 2150   1.987   1.959   3.029  0.0493  0.0108  0.1678
  732SOL    HW1 2151   1.972   1.937   2.933  0.7392 -0.0520  0.0708
  732SOL    HW2 2152   1.995   1.875   3.082 -1.1428  0.0463  0.4154
  733SOL     OW 2153   0.358   0.142   2.529 -0.2280 -0.5355 -0.6632
  733SOL    HW1 2154   0.350   0.188   2.618 -3.4483 -0.3035 -0.9422
  733SOL    HW2 2155   0.447   0.098   2.522  1.7829  2.8573  0.9606
  734SOL     OW 2156   2.035   0.981   2.611  0.3116  0.0310 -0.2273
  734SOL    HW1 2157   2.100   0.952   2.541 -0.6440  0.8080 -1.4876
  734SOL    HW2 2158   1.942   0.981   2.573 -0.0042  2.5322  0.3243
  735SOL     OW 2159   1.322   1.775   0.047 -0.5405 -0.6708 -0.2014
  735SOL    HW1 2160   1.273   1.721  -0.021 -0.2827 -0.0658 -0.8724
  735SOL    HW2 2161   1.256   1.830   0.099 -0.5993  0.0807 -1.0484
  736SOL     OW 2162   1.351   2.890   2.044 -0.1961 -0.3421 -0.4304
  736SOL    HW1 2163   1.252   2.881   2.057 -0.3132  0.6074 -0.5501
  736SOL    HW2 2164   1.393   2.800   2.045 -1.2505 -0.8855 -1.8619
  737SOL     OW 2165   1.186   1.902   2.437  0.0869  0.2705 -0.2950
  737SOL    HW1 2166   1.198   2.002   2.441 -4.4235  1.2421 -3.5045
  737SOL    HW2 2167   1.245   1.864   2.366  1.7786  0.5650  0.8947
  738SOL     OW 2168   1.522   1.444   3.400  0.1125 -0.2259  0.1315
  738SOL    HW1 2169   1.444   1.382   3.391  1.0557 -1.3741 -0.4770
  738SOL    HW2 2170   1.504   1.528   3.349 -0.9156 -0.2837  0.3858
  739SOL     OW 2171   0.368   1.953   2.124  0.2389 -0.1455  0.1336
  739SOL    HW1 2172   0.457   1.995   2.143 -0.1898  1.0260 -0.3362
  739SOL    HW2 2173   0.370   1.914   2.032  0.2252  0.0137  0.0647
  740SOL     OW 2174   3.397   1.745   1.275 -0.0180 -0.0531  0.2212
  740SOL    HW1 2175   3.473   1.685   1.300  0.3822  0.2552 -0.2381
  740SOL    HW2 2176   3.379   1.736   1.177  1.5010  2.1730 -0.3528
  741SOL     OW 2177   1.469   2.849   2.970  0.0073  0.4092  0.0568
  741SOL    HW1 2178   1.500   2.929   2.918  0.7223 -1.0390 -1.8761
  741SOL    HW2 2179   1.545   2.812   3.023  0.2668 -0.1879 -0.7103
  742SOL     OW 2180   1.904   1.913  -0.029  0.3135  0.3013  0.0530
  742SOL    HW1 2181   1.842   1.917   0.049  0.6360 -1.8759  0.4939
  742SOL    HW2 2182   1.995   1.887   0.002  0.0285 -2.5307 -1.1550
  743SOL     OW 2183   1.033   3.768   2.063  0.2992 -0.1624 -0.4932
  743SOL    HW1 2184   0.965   3.705   2.101 -0.0178  0.5623  0.1540
  743SOL    HW2 2185   1.080   3.816   2.137 -0.2565  1.2046 -1.0008
  744SOL     OW 2186   1.945   2.251   3.547  0.4569  0.0177 -0.4510
  744SOL    HW1 2187   1.930   2.153   3.562  0.6677  0.3046  2.0137
  744SOL    HW2 2188   2.040   2.267   3.521  0.2161 -0.4723 -1.7245
  745SOL     OW 2189   0.277   2.234   2.129 -0.4145  0.6649  0.3718
  745SOL    HW1 2190   0.332   2.154   2.152  0.4019  0.7769 -1.0677
  745SOL    HW2 2191   0.181   2.215   2.150 -0.2057 -0.6067  0.2943
  746SOL     OW 2192   1.430   2.714   2.403 -0.0376 -0.7365  0.5029
  746SOL    HW1 2193   1.431   2.757   2.493 -0.6601 -1.2443  0.7583
  746SOL    HW2 2194   1.336   2.699   2.375  0.1707 -1.3977  0.1579
  747SOL     OW 2195   0.003   0.806   2.242  0.3871 -0.0559  0.1854
  747SOL    HW1 2196  -0.015   0.711   2.217  1.4042 -0.3373  0.4856
  747SOL    HW2 2197   0.098   0.829   2.222  0.1457  0.9122  0.0889
  748SOL     OW 2198   1.588   1.818   1.905 -0.6570 -0.1515 -0.3037
  748SOL    HW1 2199   1.657   1.814   1.833 -1.0681  0.9089 -0.7766
  748SOL    HW2 2200   1.523   1.892   1.886 -2.0617 -1.2522  0.0121
  749SOL     OW 2201   0.894   3.555   0.923 -0.2600 -0.3678 -0.0958
  749SOL    HW1 2202   0.821   3.540   0.856 -0.0879 -1.3298 -0.0844
  749SOL    HW2 2203   0.866   3.518   1.011 -0.6948  1.3540  0.5235
  750SOL     OW 2204   0.598   2.762   2.300 -0.9587  0.0294  0.1284
  750SOL    HW1 2205   0.598   2.695   2.226 -1.1434  0.0707  0.0900
  750SOL    HW2 2206   0.671   2.829   2.285  0.2180 -1.0315  0.9615
  751SOL     OW 2207   1.126   3.151   2.359 -0.1680 -0.5312 -0.3546
  751SOL    HW1 2208   1.188   3.140   2.437  2.7348 -1.1709 -2.5471
  751SOL    HW2 2209   1.081   3.241   2.365  4.2715  2.0132 -0.5953
  752SOL     OW 2210   1.605   3.785   2.767  0.2116  0.2514  0.0807
  752SOL    HW1 2211   1.634   3.880   2.757  0.4877 -0.0334 -2.4093
  752SOL    HW2 2212   1.632   3.733   2.687 -0.9572 -1.6852  0.8637
  753SOL     OW 2213   0.385   2.307   3.674 -0.6498  0.4132 -0.2791
  753SOL    HW1 2214   0.414   2.273   3.584 -0.2686  0.2165 -0.0839
  753SOL    HW2 2215   0.339   2.234   3.723  0.4603  0.0573  0.2725
  754SOL     OW 2216   0.867   2.566   2.952  0.2973 -0.0150  0.1982
  754SOL    HW1 2217   0.933   2.492   2.953 -1.1806 -1.3994 -0.1089
  754SOL    HW2 2218   0.909   2.650   2.986  2.9104 -0.2066 -2.2395
  755SOL     OW 2219   1.072   1.005   3.378 -0.3025 -0.0421  1.0852
  755SOL    HW1 2220   1.152   0.969   3.425  0.8981 -0.0076 -0.8109
  755SOL    HW2 2221   1.100   1.077   3.314 -2.2199  1.9610  2.3534
  756SOL     OW 2222   1.316   2.162   3.199  0.0474  0.2703  0.1054
  756SOL    HW1 2223   1.404   2.169   3.152 -0.2978  1.5613 -0.3892
  756SOL    HW2 2224   1.326   2.193   3.294  0.5268 -1.4237  0.6554
  757SOL     OW 2225   1.569   2.029   3.015  0.5901 -0.2767 -0.5232
  757SOL    HW1 2226   1.602   2.114   3.057 -0.6459 -0.0744  0.0738
  757SOL    HW2 2227   1.595   2.028   2.918  1.0879  0.5210 -0.4135
  758SOL     OW 2228   1.331   0.279   2.481 -0.1812 -0.0255  0.2106
  758SOL    HW1 2229   1.371   0.206   2.425  0.7788  0.5681  0.1013
  758SOL    HW2 2230   1.375   0.279   2.571 -2.0216 -1.2696  1.1875
  759SOL     OW 2231   1.009   2.980   2.658 -0.0787  0.1828  0.2049
  759SOL    HW1 2232   1.068   3.000   2.736  1.1203 -2.1302 -0.0219
  759SOL    HW2 2233   0.946   3.056   2.644  1.6779  1.9938  1.5340
  760SOL     OW 2234   0.832   2.916   2.234  0.9808  0.3522 -0.4857
  760SOL    HW1 2235   0.810   3.013   2.246 -0.4945 -0.0912  0.5612
  760SOL    HW2 2236   0.931   2.907   2.218  0.9488  2.1302 -2.1124
  761SOL     OW 2237   0.067   1.900   1.741  0.1268 -0.7827  0.4608
  761SOL    HW1 2238   0.002   1.926   1.812 -1.0443  1.7517 -1.3727
  761SOL    HW2 2239   0.142   1.966   1.739 -0.7106  0.1981 -1.6309
  762SOL     OW 2240   1.193   0.386   1.889  0.0330  0.4327 -0.9929
  762SOL    HW1 2241   1.240   0.317   1.945  0.5981  1.8847  0.3881
  762SOL    HW2 2242   1.101   0.400   1.923  0.6490  1.9132  0.1694
  763SOL     OW 2243   1.009   1.759   1.435 -0.0670 -0.9381  0.2238
  763SOL    HW1 2244   1.054   1.670   1.437  1.3143 -0.2762 -0.0163
  763SOL    HW2 2245   0.948   1.764   1.355  1.8680 -0.7563 -1.3123
  764SOL     OW 2246   0.469   1.869   2.740  0.1733  0.3296  0.1081
  764SOL    HW1 2247   0.375   1.873   2.774  0.1656  1.0797  0.0034
  764SOL    HW2 2248   0.488   1.776   2.707 -1.1762  0.6451 -1.7259
  765SOL     OW 2249   1.722   1.185   0.682  0.4942 -0.3286 -0.0519
  765SOL    HW1 2250   1.724   1.231   0.594  0.4478  1.2829  0.7627
  765SOL    HW2 2251   1.685   1.093   0.670 -0.0191  0.0476 -1.6151
  766SOL     OW 2252   1.911   2.923   0.625 -0.1110  0.0514  0.1795
  766SOL    HW1 2253   1.982   2.980   0.583  1.2285 -1.2202  0.5993
  766SOL    HW2 2254   1.917   2.931   0.725 -1.4027  0.8743  0.2150
  767SOL     OW 2255   1.819   3.464   2.852 -0.1405  0.5623 -0.2151
  767SOL    HW1 2256   1.734   3.425   2.818 -0.5848  0.3510  1.0985
  767SOL    HW2 2257   1.827   3.448   2.950 -0.1447  3.3706  0.3327
  768SOL     OW 2258   2.181   2.779   3.230  0.1570  0.0429  0.2659
  768SOL    HW1 2259   2.229   2.739   3.308 -2.3941  0.4974  2.2230
  768SOL    HW2 2260   2.178   2.878   3.240 -0.6813  0.0631 -0.0861
  769SOL     OW 2261   2.057   0.022   2.357  0.4218  0.0254  0.5772
  769SOL    HW1 2262   2.016   0.110   2.379 -0.3388 -0.3271  0.6221
  769SOL    HW2 2263   2.137   0.035   2.299  1.7625  0.9007  2.5503
  770SOL     OW 2264   1.052   3.127   3.714  0.3636  0.2403  0.5834
  770SOL    HW1 2265   1.090   3.214   3.683 -0.1913  1.6656  3.4956
  770SOL    HW2 2266   1.122   3.076   3.764  0.1023  0.0664  0.7767
  771SOL     OW 2267   1.094   3.745   3.702  0.2242 -0.1516  0.1112
  771SOL    HW1 2268   1.056   3.654   3.717  1.3143 -0.9067 -1.2965
  771SOL    HW2 2269   1.169   3.761   3.766 -0.3416  0.0034  0.7417
  772SOL     OW 2270   1.620   2.283   3.084  0.3672  0.7962  0.2586
  772SOL    HW1 2271   1.627   2.361   3.021  0.2613  0.2348 -0.4549
  772SOL    HW2 2272   1.711   2.262   3.121  0.1814  2.1753  1.6063
  773SOL     OW 2273   1.089   2.186   0.665  0.4163 -0.4036  0.5995
  773SOL    HW1 2274   1.066   2.220   0.757 -1.1127  1.0957 -0.2761
  773SOL    HW2 2275   1.028   2.110   0.642  0.7327 -0.7133  0.7721
  774SOL     OW 2276   1.738   0.640   2.648  0.1965 -0.0547  0.2946
  774SOL    HW1 2277   1.766   0.700   2.572  1.4594 -1.2826 -0.2521
  774SOL    HW2 2278   1.640   0.623   2.642  0.5004 -1.4367 -2.1158
  775SOL     OW 2279   3.082   3.822   0.097  0.0572  0.4255  0.0894
  775SOL    HW1 2280   3.066   3.878   0.015  0.9994 -1.1857 -1.2696
  775SOL    HW2 2281   2.998   3.774   0.121  0.3336 -0.9450 -1.4552
  776SOL     OW 2282   3.281   3.015   1.889 -0.2232 -0.2962  0.1855
  776SOL    HW1 2283   3.364   2.962   1.907  1.2765  2.3365  1.5143
  776SOL    HW2 2284   3.297   3.080   1.815 -0.5595  1.2280  1.3990
  777SOL     OW 2285   1.363   1.694   2.991 -0.1011  0.6866 -0.7690
  777SOL    HW1 2286   1.459   1.719   3.006  0.1288 -0.8932  0.7664
  777SOL    HW2 2287   1.305   1.762   3.036  0.4674 -0.5733  2.0881
  778SOL     OW 2288   2.163   0.120   1.805  0.1750  0.2965 -0.1552
  778SOL    HW1 2289   2.113   0.207   1.805  0.9039  0.7934  2.1139
  778SOL    HW2 2290   2.116   0.054   1.747 -2.2053  1.2407  0.6026
  779SOL     OW 2291   1.469   2.883   0.677  0.3706  0.1952 -0.2478
  779SOL    HW1 2292   1.472   2.827   0.760 -0.3770  0.1153 -0.2663
  779SOL    HW2 2293   1.547   2.860   0.619  0.1822 -0.7003 -0.1672
  780SOL     OW 2294   1.295   2.310   2.226  0.1349 -0.2964 -0.2092
  780SOL    HW1 2295   1.321   2.222   2.186  1.1841 -1.5951  3.0206
  780SOL    HW2 2296   1.364   2.379   2.204 -0.4976 -0.3101 -2.4457
  781SOL     OW 2297   3.170   3.836   3.529 -0.1481  0.1953  0.7052
  781SOL    HW1 2298   3.262   3.796   3.519  0.4267  1.8632 -1.5493
  781SOL    HW2 2299   3.104   3.776   3.483  0.0127 -0.3353  1.1509
  782SOL     OW 2300   0.293   1.742   0.236 -0.1370  0.1098  0.0618
  782SOL    HW1 2301   0.375   1.789   0.201 -0.1673  0.8011  0.8849
  782SOL    HW2 2302   0.314   1.701   0.325  0.4174 -3.0283 -1.3655
  783SOL     OW 2303   1.158   3.361   3.512  0.0632  0.0023  0.1886
  783SOL    HW1 2304   1.143   3.353   3.414 -0.2194  0.9554  0.1411
  783SOL    HW2 2305   1.246   3.320   3.536 -0.0722 -0.6355 -0.3904
  784SOL     OW 2306   0.849   2.198   3.789 -0.6008  0.0366 -0.5887
  784SOL    HW1 2307   0.793   2.274   3.754 -0.8338  0.5954  0.9351
  784SOL    HW2 2308   0.932   2.234   3.831 -0.2625 -0.6329 -0.6641
  785SOL     OW 2309   3.204   1.668   3.196 -0.0017 -0.4915 -0.3769
  785SOL    HW1 2310   3.283   1.620   3.235  0.9289  0.8468 -0.5612
  785SOL    HW2 2311   3.148   1.705   3.271  1.9263  2.3117 -0.1439
  786SOL     OW 2312   1.027   0.936   0.407  0.3795 -0.0282  0.1650
  786SOL    HW1 2313   0.968   0.895   0.337 -0.2194 -0.9630  1.1810
  786SOL    HW2 2314   1.098   0.871   0.433 -1.2505 -0.9789  2.5949
  787SOL     OW 2315   1.020   3.029   0.925  0.2048 -0.3693 -0.7698
  787SOL    HW1 2316   1.090   3.094   0.953  1.6459 -2.6153  1.2240
  787SOL    HW2 2317   0.930   3.061   0.956  0.5953  1.4682 -1.4221
  788SOL     OW 2318   0.733   2.733   1.974  0.1330 -0.2939 -0.5063
  788SOL    HW1 2319   0.746   2.825   2.011 -0.3256 -0.2013 -0.5675
  788SOL    HW2 2320   0.789   2.668   2.026  0.7700  0.0772 -0.7299
  789SOL     OW 2321   0.190   3.265   3.279  0.0995 -0.2222 -0.0527
  789SOL    HW1 2322   0.114   3.237   3.338  0.1553  0.3155  0.2879
  789SOL    HW2 2323   0.199   3.202   3.202 -0.2612 -0.6749  0.2765
  790SOL     OW 2324   3.398   3.647   3.525  0.1478  0.0146 -0.5940
  790SOL    HW1 2325   3.360   3.615   3.612  1.1413 -3.3175 -1.2563
  790SOL    HW2 2326   3.497   3.632   3.524  0.3208  1.0337 -1.9081
  791SOL     OW 2327   1.336   3.012   3.567  0.2933 -0.2289  0.6207
  791SOL    HW1 2328   1.285   2.968   3.493  0.8117 -0.8616  0.6215
  791SOL    HW2 2329   1.292   2.993   3.654  1.1816 -1.8441  0.7612
  792SOL     OW 2330   2.187   3.749   0.314 -0.0958 -0.1979 -0.3214
  792SOL    HW1 2331   2.226   3.706   0.396 -1.0324 -0.6367 -0.0827
  792SOL    HW2 2332   2.095   3.711   0.298 -0.4534  0.8555 -0.8135
  793SOL     OW 2333   3.750   1.969   2.363  0.6476  0.0874 -0.1902
  793SOL    HW1 2334   3.789   1.986   2.272 -0.0851 -0.6346 -0.6525
  793SOL    HW2 2335   3.675   1.904   2.355 -1.5151  2.3855  0.5257
  794SOL     OW 2336   0.946   2.085   1.979 -0.4242 -0.2434  0.1305
  794SOL    HW1 2337   0.922   2.181   1.964 -1.1880 -0.4941 -0.3286
  794SOL    HW2 2338   0.878   2.026   1.935 -0.1662 -1.0001  0.7132
  795SOL     OW 2339   0.049   3.427   2.747 -0.2673 -0.2813 -0.4033
  795SOL    HW1 2340   0.042   3.393   2.653  0.1448 -1.1292 -0.1410
  795SOL    HW2 2341   0.099   3.361   2.803 -0.7738  0.0695  0.4946
  796SOL     OW 2342   1.474   2.827   0.123  0.0333  0.1374  0.2180
  796SOL    HW1 2343   1.467   2.763   0.046  1.8815  0.4309 -0.2473
  796SOL    HW2 2344   1.499   2.777   0.206 -0.2596  0.0301  0.2401
  797SOL     OW 2345   2.497   3.079   1.074  0.3894 -0.0859 -0.3635
  797SOL    HW1 2346   2.538   3.162   1.110  4.0470 -1.2885 -1.3477
  797SOL    HW2 2347   2.561   3.034   1.012 -2.2741 -2.5742 -1.5715
  798SOL     OW 2348   0.924   2.021   1.441 -0.3037  0.8616  0.2502
  798SOL    HW1 2349   1.002   2.078   1.416  0.7088  0.3450  2.1106
  798SOL    HW2 2350   0.954   1.927   1.455 -1.2583  0.6613  1.0403
  799SOL     OW 2351   1.936   2.458   2.212 -0.4409 -0.3457 -0.1019
  799SOL    HW1 2352   1.923   2.526   2.284 -0.9252 -1.1147  0.5565
  799SOL    HW2 2353   2.010   2.488   2.151  1.1235 -0.4544  1.6506
  800SOL     OW 2354   1.185   3.099   2.862  0.1880  0.3039  0.3851
  800SOL    HW1 2355   1.178   3.053   2.951 -1.0882  0.3123  0.3135
  800SOL    HW2 2356   1.165   3.196   2.874  0.1973  0.3379  0.1181
  801SOL     OW 2357  -0.021   1.261   3.613  0.2566 -0.4850  0.1401
  801SOL    HW1 2358   0.047   1.199   3.575  0.7838 -0.5155  1.1151
  801SOL    HW2 2359   0.010   1.295   3.702 -2.1462 -2.5906  1.9327
  802SOL     OW 2360   1.483   2.436   3.763 -0.2144 -0.7536  0.6078
  802SOL    HW1 2361   1.454   2.527   3.736 -1.4904 -1.4754 -0.5785
  802SOL    HW2 2362   1.533   2.393   3.687 -0.6739 -1.4719  0.6996
  803SOL     OW 2363   0.769   0.946   3.641 -0.0779  0.7443 -0.5222
  803SOL    HW1 2364   0.732   0.917   3.553  0.2596 -0.3387 -0.3287
  803SOL    HW2 2365   0.744   0.879   3.711  1.7320  0.2611 -0.2826
  804SOL     OW 2366   0.996   2.793   2.467  0.2064 -0.3528  0.4401
  804SOL    HW1 2367   0.907   2.811   2.426 -0.0606 -2.0017  0.2350
  804SOL    HW2 2368   1.018   2.866   2.532 -0.4494  1.0308 -0.8290
  805SOL     OW 2369   3.233   3.186   2.101  0.1907  0.5936 -0.7981
  805SOL    HW1 2370   3.314   3.178   2.159  0.0306  1.7717 -0.3686
  805SOL    HW2 2371   3.242   3.127   2.021  1.2836  0.4047 -0.5483
  806SOL     OW 2372   0.764   0.261   3.696 -0.1354  0.0221  0.1930
  806SOL    HW1 2373   0.687   0.288   3.639 -1.0242  0.3779  1.5369
  806SOL    HW2 2374   0.755   0.164   3.720 -0.3899  0.1679  0.6914
  807SOL     OW 2375   0.086   1.067   2.422  0.4400 -0.0488  0.5857
  807SOL    HW1 2376   0.104   0.976   2.459  0.5533 -0.0021  0.6451
  807SOL    HW2 2377   0.093   1.135   2.496 -1.6336 -0.2089  0.9819
  808SOL     OW 2378   1.838   2.339   3.774 -0.0742  0.5278  0.1976
  808SOL    HW1 2379   1.803   2.264   3.831 -0.1537  0.3034 -0.1480
  808SOL    HW2 2380   1.882   2.302   3.693  0.0572  0.8503  0.1195
  809SOL     OW 2381   3.518   1.526   0.290  0.6699  0.0779  0.0595
  809SOL    HW1 2382   3.515   1.561   0.383  0.6867 -0.5058  0.2803
  809SOL    HW2 2383   3.429   1.486   0.266  0.9967 -0.7726  0.2212
  810SOL     OW 2384   0.962   1.950   3.709  0.2537 -0.9010  0.0653
  810SOL    HW1 2385   0.914   2.038   3.709  1.4287 -0.2472 -0.1890
  810SOL    HW2 2386   0.950   1.906   3.798  2.0693  0.8796  1.2716
  811SOL     OW 2387   2.233   3.353   0.284 -0.0319 -0.0271  0.5310
  811SOL    HW1 2388   2.191   3.355   0.375  0.2201 -0.3724  0.6583
  811SOL    HW2 2389   2.204   3.270   0.236 -1.6736  1.0679 -0.4459
  812SOL     OW 2390   1.430   2.631   1.978 -0.1506 -0.3144 -0.4201
  812SOL    HW1 2391   1.436   2.609   1.880 -1.5846 -1.0426 -0.3657
  812SOL    HW2 2392   1.495   2.575   2.029 -0.7111 -1.2923 -0.7648
  813SOL     OW 2393   2.005   3.336   3.811 -0.2675  0.3441  0.0794
  813SOL    HW1 2394   1.958   3.347   3.898 -1.1770  1.4401 -0.5198
  813SOL    HW2 2395   1.938   3.331   3.737  0.5096  0.9895 -0.6960
  814SOL     OW 2396   0.775   3.085   0.058 -0.2523 -0.1617  0.0554
  814SOL    HW1 2397   0.768   3.110   0.155  0.7748 -1.3419  0.4609
  814SOL    HW2 2398   0.849   3.137   0.015 -1.5093  1.2709 -0.4274
  815SOL     OW 2399   1.084   2.766   3.823 -0.0059 -0.5949 -0.0527
  815SOL    HW1 2400   0.990   2.789   3.799  0.3017  0.6673 -0.1223
  815SOL    HW2 2401   1.131   2.729   3.742 -0.7279 -2.2367  0.2579
  816SOL     OW 2402   1.495   3.752   0.184  0.8120  0.6858  0.0943
  816SOL    HW1 2403   1.534   3.667   0.217 -0.4276 -0.0592 -0.2978
  816SOL    HW2 2404   1.565   3.804   0.134  1.6105 -0.0322  0.4548
  817SOL     OW 2405   0.475   1.662   1.734  0.1063 -0.6014  0.3791
  817SOL    HW1 2406   0.543   1.718   1.687 -1.7323  1.1225 -0.3657
  817SOL    HW2 2407   0.486   1.566   1.707  1.0891 -0.0965 -1.1266
  818SOL     OW 2408   0.298   2.324   0.544  0.2531 -0.0702 -0.4037
  818SOL    HW1 2409   0.304   2.230   0.510 -3.4633 -0.2121 -1.0746
  818SOL    HW2 2410   0.336   2.386   0.476  0.0372 -0.9100 -1.3172
  819SOL     OW 2411   1.437   3.631   3.205 -0.4487 -0.5127 -0.6977
  819SOL    HW1 2412   1.453   3.534   3.223  0.5054  0.0588  1.9150
  819SOL    HW2 2413   1.505   3.663   3.138 -0.1099 -1.4065 -0.7986
  820SOL     OW 2414   1.700   2.076   2.374  0.0769 -0.0254  0.0504
  820SOL    HW1 2415   1.698   2.175   2.380  1.1969 -0.0618  1.6684
  820SOL    HW2 2416   1.793   2.045   2.356  0.1109 -0.8320  1.4455
  821SOL     OW 2417   2.317   2.691  -0.003  0.0445  0.2004 -0.2638
  821SOL    HW1 2418   2.231   2.741   0.008  0.7067  1.1270  0.9646
  821SOL    HW2 2419   2.335   2.637   0.080  1.8880  2.0736  0.6527
  822SOL     OW 2420   1.426   3.360   2.910  0.1191  0.0367  0.0236
  822SOL    HW1 2421   1.327   3.347   2.905 -0.0382  0.8323  0.7958
  822SOL    HW2 2422   1.459   3.395   2.823 -0.1023 -1.2539 -0.6002
  823SOL     OW 2423   1.418   3.259   3.599  0.2426  0.7915 -0.2266
  823SOL    HW1 2424   1.377   3.168   3.591 -1.3317  1.4439 -0.0422
  823SOL    HW2 2425   1.517   3.252   3.591  0.1700 -0.9616 -0.0185
  824SOL     OW 2426   0.588   1.724   3.757  0.0848  0.8207 -0.3919
  824SOL    HW1 2427   0.631   1.755   3.673  0.9553 -2.1226 -1.1380
  824SOL    HW2 2428   0.568   1.626   3.751 -1.1982  0.8104  2.2779
  825SOL     OW 2429   1.390   2.403   2.529  0.6276  0.4516 -0.4088
  825SOL    HW1 2430   1.295   2.430   2.547  1.1829  1.1546  1.9107
  825SOL    HW2 2431   1.400   2.376   2.433 -1.6626  1.3667 -0.9752
  826SOL     OW 2432   0.791   3.184   2.243 -0.6347  0.1316  0.1173
  826SOL    HW1 2433   0.845   3.260   2.207 -0.5543  0.8748  1.7227
  826SOL    HW2 2434   0.694   3.204   2.231 -0.6436 -1.1082 -2.5735
  827SOL     OW 2435   3.379   3.470   3.840 -0.2810  0.1024  0.6718
  827SOL    HW1 2436   3.357   3.398   3.774  0.4725  0.6918 -0.2396
  827SOL    HW2 2437   3.477   3.471   3.857  0.0477  2.2197 -0.9240
  828SOL     OW 2438   0.893   2.523   2.093 -0.4550 -0.2737  0.2396
  828SOL    HW1 2439   0.950   2.493   2.169 -0.8086 -0.4877  0.4235
  828SOL    HW2 2440   0.948   2.528   2.010  0.2407  1.1771  0.7535
  829SOL     OW 2441   1.195   2.659   3.586  0.0287 -0.2366 -0.2139
  829SOL    HW1 2442   1.247   2.672   3.502 -0.1836 -1.5568 -0.5650
  829SOL    HW2 2443   1.159   2.566   3.590 -1.1853  0.2318  0.6536
  830SOL     OW 2444   1.559   3.535   1.870  0.5564 -0.4649  0.0948
  830SOL    HW1 2445   1.527   3.617   1.917  0.8027  0.1291 -0.7405
  830SOL    HW2 2446   1.513   3.455   1.908  1.4274 -0.1414  1.9589
  831SOL     OW 2447   2.118   3.364   2.422  0.0681  0.9252 -0.1784
  831SOL    HW1 2448   2.182   3.431   2.385  1.7589 -0.7884 -0.5165
  831SOL    HW2 2449   2.066   3.406   2.497  0.0397  2.9923 -1.2634
  832SOL     OW 2450   2.671   2.119   2.625 -0.3412 -0.4287 -0.0146
  832SOL    HW1 2451   2.755   2.098   2.675 -1.4669 -1.0980  1.7015
  832SOL    HW2 2452   2.664   2.059   2.545  1.1957  0.2179 -0.6611
  833SOL     OW 2453  -0.030   1.637   2.284  0.3230  0.6251 -0.6557
  833SOL    HW1 2454   0.061   1.650   2.323  0.5478  2.2395 -1.6270
  833SOL    HW2 2455  -0.022   1.587   2.198 -0.0744 -2.0345  0.7430
  834SOL     OW 2456   3.228   2.647   2.201 -0.5161 -0.7788 -0.1741
  834SOL    HW1 2457   3.293   2.662   2.127  1.2584 -0.6052  1.3635
  834SOL    HW2 2458   3.158   2.719   2.199  0.7470  0.4812 -0.3990
  835SOL     OW 2459   1.535   3.003   3.223  0.1717 -0.4760  0.0836
  835SOL    HW1 2460   1.582   2.916   3.210  0.0724 -0.2368 -2.2606
  835SOL    HW2 2461   1.579   3.073   3.168 -0.7348  0.6112  0.7047
  836SOL     OW 2462   0.477   3.329   2.797 -0.1915 -0.2994  0.0264
  836SOL    HW1 2463   0.432   3.418   2.807 -0.6895 -0.5333 -0.1172
  836SOL    HW2 2464   0.503   3.315   2.701  1.1469  0.2888  0.2809
  837SOL     OW 2465   0.861   3.664   1.593  0.4779 -0.0399  0.0616
  837SOL    HW1 2466   0.932   3.664   1.664  1.4191  0.2946 -0.8538
  837SOL    HW2 2467   0.879   3.737   1.528  0.0297 -0.7698 -0.9081
  838SOL     OW 2468   3.024   1.021   2.851 -0.3798  0.1657  0.7275
  838SOL    HW1 2469   3.041   1.102   2.908  1.2208 -0.0589  0.6245
  838SOL    HW2 2470   3.109   0.994   2.806 -1.1746 -0.8504 -0.2151
  839SOL     OW 2471   1.766   0.300   2.974 -0.0213  0.0847  0.2482
  839SOL    HW1 2472   1.689   0.244   3.007  0.2904 -0.8250 -0.5497
  839SOL    HW2 2473   1.731   0.389   2.946 -1.1357 -0.9653 -1.9293
  840SOL     OW 2474   1.491   3.655   2.200  0.1607 -0.1222 -0.0993
  840SOL    HW1 2475   1.409   3.602   2.179  0.3536 -0.4517 -0.0145
  840SOL    HW2 2476   1.572   3.606   2.168  0.2823  0.5254 -0.8178
  841SOL     OW 2477   0.890   2.082   2.262 -0.4474 -0.0425 -0.4247
  841SOL    HW1 2478   0.923   2.159   2.316 -1.9201  0.1437  0.2501
  841SOL    HW2 2479   0.908   2.100   2.165  1.2349  0.1100 -0.1137
  842SOL     OW 2480   0.369   2.798   2.460  0.5507 -0.3439 -0.1142
  842SOL    HW1 2481   0.456   2.784   2.413  0.2841  1.3122 -1.1962
  842SOL    HW2 2482   0.373   2.884   2.511  0.5967 -1.7643  2.4524
  843SOL     OW 2483   2.229   2.321   3.445  0.1003  0.8480  0.3653
  843SOL    HW1 2484   2.321   2.289   3.422  0.2206  1.3042  0.1975
  843SOL    HW2 2485   2.234   2.391   3.516 -0.2406 -0.2138  1.4599
  844SOL     OW 2486   1.155   3.401   2.878  0.1943  0.0979 -0.2986
  844SOL    HW1 2487   1.186   3.479   2.932  1.6484 -0.2550 -0.5823
  844SOL    HW2 2488   1.160   3.424   2.780  1.0072 -0.4638 -0.3988
  845SOL     OW 2489   0.749   2.272   0.429 -0.5990  0.2623 -0.1455
  845SOL    HW1 2490   0.735   2.214   0.349  0.6300  0.0480 -0.2269
  845SOL    HW2 2491   0.714   2.225   0.511 -0.2832 -0.2861 -0.3180
  846SOL     OW 2492   1.243   1.410   3.777 -0.0268 -0.4927 -0.7601
  846SOL    HW1 2493   1.279   1.356   3.701  2.2622  0.2403 -0.2704
  846SOL    HW2 2494   1.253   1.507   3.757 -2.3570 -0.2065 -0.8194
  847SOL     OW 2495   1.333   2.871   1.082  0.6457  0.5553  0.5886
  847SOL    HW1 2496   1.383   2.891   1.167 -1.1117  2.2248  1.3159
  847SOL    HW2 2497   1.235   2.884   1.098  0.2079  0.0914 -1.5011
  848SOL     OW 2498   2.238   3.169   3.040 -0.5542 -0.0818  0.2144
  848SOL    HW1 2499   2.255   3.254   3.091  0.7561 -0.8521  1.1169
  848SOL    HW2 2500   2.256   3.185   2.943 -1.3134  0.9210  0.2168
  849SOL     OW 2501   0.061   3.173   3.509  0.3087 -0.3447  0.0954
  849SOL    HW1 2502   0.059   3.200   3.605 -0.2374  1.2930 -0.3527
  849SOL    HW2 2503  -0.031   3.176   3.471  0.7323  0.6561 -0.9054
  850SOL     OW 2504   2.207   2.453   2.087  0.4336 -0.0776  0.4906
  850SOL    HW1 2505   2.219   2.470   1.989 -0.0621 -0.3806  0.3754
  850SOL    HW2 2506   2.292   2.475   2.135  0.1645  1.6930  0.2184
  851SOL     OW 2507   1.243   2.984  -0.029 -0.6065 -0.1660 -0.3459
  851SOL    HW1 2508   1.330   2.969   0.017  0.1206  0.3268 -1.5283
  851SOL    HW2 2509   1.173   2.926   0.012  0.7234 -2.0965 -0.7046
  852SOL     OW 2510   0.203   2.348   1.830  0.1264 -0.1524 -0.0291
  852SOL    HW1 2511   0.128   2.399   1.788 -0.3511 -1.8670 -1.3531
  852SOL    HW2 2512   0.232   2.394   1.914 -3.7875 -0.4991  1.7043
  853SOL     OW 2513   0.032   1.380   0.039  0.3453 -0.4750 -0.2973
  853SOL    HW1 2514   0.050   1.313   0.112 -1.6546 -2.2303 -1.3036
  853SOL    HW2 2515  -0.064   1.409   0.043  0.6940  0.8846 -1.0917
  854SOL     OW 2516   1.857   2.693   1.246 -0.6674  0.2576 -0.8002
  854SOL    HW1 2517   1.793   2.685   1.323 -0.2791  0.3331 -0.4632
  854SOL    HW2 2518   1.855   2.609   1.192 -0.8972  0.1798 -0.6734
  855SOL     OW 2519   0.417   0.185   0.323 -0.2604 -0.1231 -0.1137
  855SOL    HW1 2520   0.325   0.148   0.304 -0.6302  0.6872  0.0586
  855SOL    HW2 2521   0.408   0.276   0.363  0.6014 -0.4882  0.9376
  856SOL     OW 2522   1.297   3.089   2.581  0.4797  0.1484 -0.2300
  856SOL    HW1 2523   1.370   3.022   2.595  0.1777 -0.2206 -0.4103
  856SOL    HW2 2524   1.246   3.100   2.666 -0.3421 -0.8913 -0.5718
  857SOL     OW 2525   0.480   0.906   1.731  0.1691 -0.0641  0.3296
  857SOL    HW1 2526   0.411   0.881   1.662 -0.1818  1.9629 -0.1380
  857SOL    HW2 2527   0.566   0.861   1.710 -0.1381 -0.0646 -1.0230
  858SOL     OW 2528   1.052   2.215   3.199  0.0155  0.2676  0.3448
  858SOL    HW1 2529   1.147   2.182   3.201 -0.6049 -1.6284  1.2779
  858SOL    HW2 2530   1.044   2.296   3.256  0.6449 -0.9675  2.2858
  859SOL     OW 2531   1.532   2.714   0.369  0.2465  0.5802  0.7214
  859SOL    HW1 2532   1.450   2.684   0.419 -0.0693 -0.7839 -0.5391
  859SOL    HW2 2533   1.610   2.716   0.432 -0.3351 -0.1331  1.4992
  860SOL     OW 2534   1.598   2.504   2.886  0.1702  0.6626  0.6833
  860SOL    HW1 2535   1.653   2.587   2.875  0.2568  0.4557 -0.6447
  860SOL    HW2 2536   1.504   2.529   2.907 -0.2536  1.2188 -1.6024
  861SOL     OW 2537   3.804   3.087   2.004  0.3236  0.8716 -0.3948
  861SOL    HW1 2538   3.743   3.010   2.020  0.7613  0.6917  0.4702
  861SOL    HW2 2539   3.899   3.057   2.017  0.5652  1.2791 -1.1796
  862SOL     OW 2540   2.941   0.302   2.846  0.3012 -0.1515  0.8135
  862SOL    HW1 2541   3.030   0.260   2.861 -0.0973 -0.9423  0.9808
  862SOL    HW2 2542   2.868   0.238   2.872 -0.3177  0.4895  0.6961
  863SOL     OW 2543   1.444   2.869   2.665  0.6751 -0.2171  0.1002
  863SOL    HW1 2544   1.533   2.832   2.694  1.5118  1.1076 -0.6543
  863SOL    HW2 2545   1.376   2.851   2.736  1.3892 -1.7952  0.4268
  864SOL     OW 2546   0.479   2.740   1.806 -0.0926  0.1854  0.6547
  864SOL    HW1 2547   0.453   2.833   1.781 -1.3152 -0.0664  0.9422
  864SOL    HW2 2548   0.579   2.734   1.813  0.0103  1.4085  0.3998
  865SOL     OW 2549   1.950   0.255   3.637 -0.5581  0.1974 -0.7532
  865SOL    HW1 2550   1.871   0.241   3.578 -1.3734 -0.8819  0.5280
  865SOL    HW2 2551   1.929   0.223   3.730  1.7188 -1.1689 -0.6143
  866SOL     OW 2552   0.809   3.040   3.198  0.6302 -0.0136  0.1078
  866SOL    HW1 2553   0.822   3.138   3.186 -3.1159  0.7375  0.9528
  866SOL    HW2 2554   0.822   3.016   3.294 -1.2073  0.3018  0.4847
  867SOL     OW 2555   0.930   2.559   3.413 -0.1925 -0.1177 -0.2602
  867SOL    HW1 2556   0.983   2.520   3.488 -1.1438 -1.2647 -0.1444
  867SOL    HW2 2557   0.973   2.532   3.326 -1.3632 -2.3972 -0.2224
  868SOL     OW 2558   0.941   3.536   3.573  0.1384  0.1325 -0.2275
  868SOL    HW1 2559   0.871   3.508   3.508  0.2763 -1.8473  0.4059
  868SOL    HW2 2560   1.019   3.473   3.567  0.3773  0.2262  1.4504
  869SOL     OW 2561   1.290   1.080   2.598 -0.3941 -0.4962 -0.1768
  869SOL    HW1 2562   1.356   1.039   2.662 -1.5791 -1.9100  0.1964
  869SOL    HW2 2563   1.304   1.042   2.507  0.4329  0.5361 -0.5024
  870SOL     OW 2564   0.369   0.948   2.624  0.3889  0.5747  0.2463
  870SOL    HW1 2565   0.374   0.883   2.699 -1.2567  0.4182  0.2559
  870SOL    HW2 2566   0.399   1.038   2.655  1.1926  0.1747  0.6528
  871SOL     OW 2567   1.976   2.665   2.404  0.1677 -0.1593 -0.0903
  871SOL    HW1 2568   1.919   2.747   2.397  1.5001  0.6963 -1.3954
  871SOL    HW2 2569   2.012   2.658   2.497  2.6161  2.6204 -0.6736
  872SOL     OW 2570   0.482   1.383   0.147 -0.7411 -0.3745 -0.1747
  872SOL    HW1 2571   0.534   1.453   0.195 -0.5013 -0.0078 -0.9451
  872SOL    HW2 2572   0.395   1.369   0.193 -0.3132 -0.4018  0.6508
  873SOL     OW 2573   1.677   2.759   2.720 -0.0406  0.4374 -0.5896
  873SOL    HW1 2574   1.761   2.813   2.716 -0.1786  0.5419 -2.8026
  873SOL    HW2 2575   1.686   2.679   2.661 -0.5151 -1.0857  1.2732
  874SOL     OW 2576   1.211   1.977   3.567 -0.5861  0.3520  0.4534
  874SOL    HW1 2577   1.146   1.970   3.642  0.0209 -0.0354  0.9527
  874SOL    HW2 2578   1.171   1.935   3.485 -1.4654  1.2679  0.3953
  875SOL     OW 2579   3.000   1.616   2.296 -0.2898  0.0003  0.0199
  875SOL    HW1 2580   2.943   1.607   2.214 -1.1142  1.3894  0.4042
  875SOL    HW2 2581   2.950   1.580   2.375 -1.0531  1.9863  0.5050
  876SOL     OW 2582   0.722   2.067   1.241 -0.3845  0.4015  0.8527
  876SOL    HW1 2583   0.786   2.009   1.292  0.9618  0.9526 -0.1450
  876SOL    HW2 2584   0.728   2.161   1.274  1.2693  0.9821 -0.9115
  877SOL     OW 2585   0.362   3.271   2.502  0.4078  0.2564  0.1629
  877SOL    HW1 2586   0.388   3.363   2.532  1.2540 -0.2627  1.0838
  877SOL    HW2 2587   0.263   3.266   2.495  0.3733  1.4050 -0.4610
  878SOL     OW 2588   0.772   2.285   1.955 -0.1639  0.4177  0.9365
  878SOL    HW1 2589   0.837   2.361   1.965 -1.5769  1.5698  1.8641
  878SOL    HW2 2590   0.686   2.311   1.998 -1.4654 -0.8076 -0.8510
  879SOL     OW 2591   0.853   1.989   3.246 -0.6338 -0.5105 -0.4423
  879SOL    HW1 2592   0.895   2.077   3.267 -1.2549 -0.1544 -0.6753
  879SOL    HW2 2593   0.762   2.003   3.208 -0.6945 -1.2514 -0.5949
  880SOL     OW 2594   1.734   1.537   2.553 -0.1820  0.1851 -0.3272
  880SOL    HW1 2595   1.733   1.598   2.473  0.6353  2.1051  1.0599
  880SOL    HW2 2596   1.646   1.545   2.601 -0.7216 -1.0654 -1.0479
  881SOL     OW 2597   0.651   0.323   3.073  0.2179 -0.5266 -0.1057
  881SOL    HW1 2598   0.722   0.260   3.042  1.0857  0.2821  0.1924
  881SOL    HW2 2599   0.687   0.380   3.147 -0.7323 -0.0723  0.0197
  882SOL     OW 2600   0.203   2.941   1.986 -0.2675 -0.1956 -0.1243
  882SOL    HW1 2601   0.255   2.971   2.066  0.1497 -0.7755 -0.1731
  882SOL    HW2 2602   0.200   2.841   1.984 -1.8949 -0.1872  0.2013
  883SOL     OW 2603   0.390   3.019   2.603 -0.3456 -0.3614 -0.4990
  883SOL    HW1 2604   0.471   3.048   2.654  0.2219 -2.0465 -0.4081
  883SOL    HW2 2605   0.346   3.100   2.564 -0.5506  0.9506  2.2148
  884SOL     OW 2606   2.226   3.817   2.613  0.0048  0.3470 -0.1499
  884SOL    HW1 2607   2.186   3.816   2.521 -1.9574  1.8059  0.6202
  884SOL    HW2 2608   2.213   3.728   2.656 -0.8518  0.2462 -0.5894
  885SOL     OW 2609   1.261   1.274   1.165  0.4113  0.5279  0.1914
  885SOL    HW1 2610   1.179   1.249   1.217  0.9987 -1.4311  0.2866
  885SOL    HW2 2611   1.238   1.341   1.095 -1.7850 -1.5216 -1.2177
  886SOL     OW 2612   1.867   0.472   0.157 -0.0131 -0.2367  0.3280
  886SOL    HW1 2613   1.870   0.538   0.231  0.0708  0.0211  0.0956
  886SOL    HW2 2614   1.777   0.475   0.113  0.1311  0.0235  0.0468
  887SOL     OW 2615   1.648   0.981   2.177 -0.2220 -0.5619  0.3837
  887SOL    HW1 2616   1.699   1.007   2.259 -0.9479  0.8079  0.4362
  887SOL    HW2 2617   1.619   0.886   2.185 -1.1270 -0.1785  2.1895
  888SOL     OW 2618   2.133   1.300   0.800  0.2821 -0.1778  0.0047
  888SOL    HW1 2619   2.185   1.293   0.886 -0.4737 -1.1731  0.3945
  888SOL    HW2 2620   2.061   1.369   0.811  0.4254 -0.0326  0.0424
  889SOL     OW 2621   3.811   1.781   2.578 -0.1546 -0.1598 -0.1092
  889SOL    HW1 2622   3.718   1.814   2.560 -0.6155 -2.3607 -2.3179
  889SOL    HW2 2623   3.871   1.807   2.503  1.1076  1.2597  1.3056
  890SOL     OW 2624   3.567   1.169   0.853 -0.1738 -0.4140  0.1271
  890SOL    HW1 2625   3.652   1.117   0.844  1.2930  1.8350  0.0958
  890SOL    HW2 2626   3.526   1.151   0.942  1.4631 -0.0429  1.0048
  891SOL     OW 2627   2.562   1.134   1.842 -0.4129 -0.1994 -0.4293
  891SOL    HW1 2628   2.613   1.162   1.760  2.4062  0.1576  1.3224
  891SOL    HW2 2629   2.582   1.038   1.862  0.7663  0.3303  1.0633
  892SOL     OW 2630   2.933   1.401   1.757  0.0287 -0.2360 -0.7801
  892SOL    HW1 2631   3.031   1.420   1.765 -0.0149 -0.2375 -0.1716
  892SOL    HW2 2632   2.882   1.467   1.812 -0.3346 -0.0737 -1.2980
  893SOL     OW 2633   2.285   0.871   1.014 -0.0196  0.3182 -0.1096
  893SOL    HW1 2634   2.375   0.900   1.047  0.7259 -1.0567 -0.8650
  893SOL    HW2 2635   2.267   0.778   1.044 -1.2639  0.6174  0.1185
  894SOL     OW 2636   0.037   1.793   2.858  0.1850  0.0184 -0.2476
  894SOL    HW1 2637   0.028   1.776   2.760 -1.7206  1.0711 -0.2913
  894SOL    HW2 2638  -0.001   1.715   2.909 -0.3753  0.2109 -0.3679
  895SOL     OW 2639   1.573   2.216   0.846 -0.5130 -0.0447 -0.1303
  895SOL    HW1 2640   1.494   2.204   0.906 -0.4536  1.0042  0.1820
  895SOL    HW2 2641   1.560   2.297   0.789 -0.8810 -1.4106 -2.0693
  896SOL     OW 2642   3.531   1.613   1.724 -0.1198  0.5205  0.2743
  896SOL    HW1 2643   3.512   1.533   1.668  0.9981 -0.5812  1.3994
  896SOL    HW2 2644   3.595   1.673   1.676 -0.0966  0.1802 -0.1206
  897SOL     OW 2645   2.368   0.398   1.986  0.1805  0.1056 -0.3840
  897SOL    HW1 2646   2.379   0.320   1.924  0.2058 -0.2976  0.1170
  897SOL    HW2 2647   2.446   0.401   2.049 -0.0872  0.2266 -0.0586
  898SOL     OW 2648   0.618   0.725   0.557  0.3788  0.4499 -0.5205
  898SOL    HW1 2649   0.519   0.741   0.551  0.6537  2.1803 -0.9423
  898SOL    HW2 2650   0.664   0.811   0.578  1.7130 -0.5753  1.0140
  899SOL     OW 2651   1.648   1.413   0.911 -0.1117 -0.8529  0.4370
  899SOL    HW1 2652   1.697   1.346   0.855 -1.9508 -2.2499  0.4192
  899SOL    HW2 2653   1.663   1.505   0.874  0.5555 -1.5001 -0.9677
  900SOL     OW 2654   3.077   1.712   1.493 -0.3692 -0.6749 -0.4969
  900SOL    HW1 2655   3.076   1.623   1.447  1.8698 -0.9023 -0.2131
  900SOL    HW2 2656   3.119   1.703   1.583  0.5357  0.7545 -0.7317
  901SOL     OW 2657   1.718   0.974   1.131 -0.1072  0.2127  0.3628
  901SOL    HW1 2658   1.812   0.949   1.106 -0.2065  1.0242 -0.8509
  901SOL    HW2 2659   1.711   1.073   1.142 -1.1795  0.3562 -1.2111
  902SOL     OW 2660   0.964   0.850   1.003  0.7470  0.1525  0.2420
  902SOL    HW1 2661   0.963   0.860   1.102 -1.5413 -0.6227  0.3524
  902SOL    HW2 2662   0.923   0.931   0.960  0.2442 -0.1990  0.0434
  903SOL     OW 2663   3.524   1.459   0.573 -0.0961 -0.5227 -0.1522
  903SOL    HW1 2664   3.568   1.455   0.663  0.2716  2.0715 -0.1352
  903SOL    HW2 2665   3.508   1.366   0.539  1.9713 -1.5541  1.4902
  904SOL     OW 2666   2.041   0.252   0.561 -0.8043  0.1717  0.1821
  904SOL    HW1 2667   2.093   0.337   0.567 -1.1623  0.4958 -0.9869
  904SOL    HW2 2668   2.072   0.189   0.632 -0.6232  1.3124  1.1601
  905SOL     OW 2669   3.160   2.951   2.203  0.0880 -0.6877 -0.2827
  905SOL    HW1 2670   3.150   2.935   2.301 -0.5696  0.7857 -0.0871
  905SOL    HW2 2671   3.167   3.049   2.186  1.5023 -0.9810 -1.6086
  906SOL     OW 2672   1.643   0.054   3.849  0.2458 -0.1308  0.5858
  906SOL    HW1 2673   1.633  -0.016   3.778  1.1711 -0.0617  0.3683
  906SOL    HW2 2674   1.631   0.144   3.809  2.7305  0.0314  0.0447
  907SOL     OW 2675   3.375   1.868   0.212 -0.3089 -0.3582  0.1277
  907SOL    HW1 2676   3.462   1.827   0.185  0.2228  0.8215 -0.0238
  907SOL    HW2 2677   3.387   1.916   0.299 -1.0071 -0.8138  0.4799
  908SOL     OW 2678   2.144   1.216   3.774  0.2418 -0.5092 -0.1495
  908SOL    HW1 2679   2.224   1.247   3.723 -0.2519  0.9350 -0.1126
  908SOL    HW2 2680   2.071   1.284   3.765 -0.7335 -1.4513  0.4016
  909SOL     OW 2681   0.563   1.316   1.175 -0.4368 -0.1080 -1.0666
  909SOL    HW1 2682   0.599   1.224   1.183  1.6282  0.4439 -3.0546
  909SOL    HW2 2683   0.491   1.318   1.105 -1.4295 -0.4011 -0.0927
  910SOL     OW 2684   3.394   0.730   2.944  0.2897  0.0088  0.0399
  910SOL    HW1 2685   3.487   0.743   2.908 -0.3952  0.8447 -1.5531
  910SOL    HW2 2686   3.393   0.650   3.004  1.7818 -0.7958 -0.9196
  911SOL     OW 2687   1.438   0.375   0.438 -0.3782  0.0253  0.9140
  911SOL    HW1 2688   1.483   0.426   0.512 -0.2022  0.9959  0.1623
  911SOL    HW2 2689   1.483   0.286   0.426  2.2170  1.4063 -0.5971
  912SOL     OW 2690   2.274   1.311   0.537  0.3032 -0.0398 -0.4667
  912SOL    HW1 2691   2.225   1.295   0.623  1.3797  0.6111  0.2801
  912SOL    HW2 2692   2.314   1.225   0.505  0.8552 -0.0735  0.2914
  913SOL     OW 2693   3.245   1.159   1.886  0.1852  0.1823 -0.1401
  913SOL    HW1 2694   3.147   1.156   1.903  0.0950 -0.4960 -0.7293
  913SOL    HW2 2695   3.295   1.138   1.970 -0.1158  2.2292  0.6051
  914SOL     OW 2696   2.393   3.732   0.545  0.3443  0.0266  0.1792
  914SOL    HW1 2697   2.374   3.830   0.543  1.2386  0.2436  1.5376
  914SOL    HW2 2698   2.455   3.708   0.471 -0.0748  0.4398 -0.3098
  915SOL     OW 2699   2.694   1.484   2.168 -0.0891 -0.3368 -0.3355
  915SOL    HW1 2700   2.650   1.492   2.257  0.1467  2.2619 -0.3601
  915SOL    HW2 2701   2.639   1.425   2.109 -1.6028 -0.0835  0.7482
  916SOL     OW 2702   3.327   1.008   0.292  0.0604  0.0072  0.5651
  916SOL    HW1 2703   3.274   1.092   0.301  0.1968  0.2063 -0.3904
  916SOL    HW2 2704   3.319   0.973   0.199 -1.6404 -2.1585  1.4032
  917SOL     OW 2705   1.952   2.206   0.625  0.2218  0.2063  0.0464
  917SOL    HW1 2706   2.050   2.218   0.640  0.5453 -1.9728  0.1074
  917SOL    HW2 2707   1.937   2.123   0.571 -1.5863  0.7844 -0.4094
  918SOL     OW 2708   1.482   0.374   1.617 -0.1947  0.2460 -0.7619
  918SOL    HW1 2709   1.564   0.405   1.665 -0.6143  0.6782 -0.3126
  918SOL    HW2 2710   1.408   0.439   1.632 -0.5904 -0.0811 -1.2608
  919SOL     OW 2711   0.613   2.111   0.597  0.4180 -0.2426 -0.0712
  919SOL    HW1 2712   0.598   2.165   0.680  2.1423 -1.1022  0.8564
  919SOL    HW2 2713   0.566   2.023   0.605 -0.0691 -0.0087 -0.3538
  920SOL     OW 2714   0.374   2.542   0.781  0.1624  0.3193  0.0949
  920SOL    HW1 2715   0.311   2.479   0.736  1.0490 -1.2179  0.9206
  920SOL    HW2 2716   0.468   2.508   0.773  0.3723 -0.0378  3.0096
  921SOL     OW 2717   2.530   3.400   3.539  0.0506  0.3433 -0.0456
  921SOL    HW1 2718   2.464   3.475   3.542  0.7464  0.9691  0.2965
  921SOL    HW2 2719   2.484   3.315   3.514 -1.0306  0.5975  0.9901
  922SOL     OW 2720   2.542   3.699   0.326 -0.4777 -0.2528  0.3349
  922SOL    HW1 2721   2.530   3.602   0.306 -2.1138 -0.1627  0.7778
  922SOL    HW2 2722   2.569   3.748   0.243 -0.0580 -1.0031  0.0222
  923SOL     OW 2723   2.611   2.682   3.525  0.4489 -0.1928  0.2259
  923SOL    HW1 2724   2.696   2.733   3.508  1.0667 -1.2162  0.1997
  923SOL    HW2 2725   2.629   2.607   3.588 -0.3279 -0.7460 -0.1957
  924SOL     OW 2726   3.206   0.794   0.381 -0.2854  0.2210  0.2091
  924SOL    HW1 2727   3.227   0.715   0.323 -0.4247 -0.6300  1.2888
  924SOL    HW2 2728   3.254   0.875   0.346 -0.3017 -0.2851 -1.0264
  925SOL     OW 2729   3.004   0.082   0.986 -0.6220 -0.0490  0.0573
  925SOL    HW1 2730   3.036   0.094   0.891  0.0226  0.6867  0.3556
  925SOL    HW2 2731   3.013  -0.014   1.011  0.8244  0.0172 -0.0867
  926SOL     OW 2732   2.884   0.952   1.388 -0.5746 -0.2340 -0.1176
  926SOL    HW1 2733   2.841   0.886   1.326 -1.0151 -0.2168  0.1657
  926SOL    HW2 2734   2.951   0.904   1.445  1.2758  0.0728 -1.9100
  927SOL     OW 2735   2.603   3.663   1.459  0.1115  0.0782  0.2058
  927SOL    HW1 2736   2.611   3.582   1.516  1.1029  1.0625  1.5335
  927SOL    HW2 2737   2.509   3.695   1.460 -0.3579 -1.2040 -0.5802
  928SOL     OW 2738   3.586   1.717   3.177  0.3633  0.3601  0.2533
  928SOL    HW1 2739   3.540   1.653   3.239 -0.6523  0.4213 -0.4079
  928SOL    HW2 2740   3.539   1.806   3.180  1.1844  0.7990  0.4595
  929SOL     OW 2741   1.744   1.617   0.443 -0.3559  0.2492 -0.1068
  929SOL    HW1 2742   1.671   1.665   0.394 -1.3542 -1.6245 -0.5471
  929SOL    HW2 2743   1.815   1.590   0.378  0.1188  0.9263  0.1135
  930SOL     OW 2744   1.879   3.697   0.679  0.5797 -0.4888 -0.2129
  930SOL    HW1 2745   1.934   3.645   0.744  1.4215 -0.3626 -0.8097
  930SOL    HW2 2746   1.836   3.634   0.613  1.4726 -0.4661 -0.8403
  931SOL     OW 2747   2.382   3.801   1.511 -0.0956 -0.2653 -0.3889
  931SOL    HW1 2748   2.289   3.773   1.487 -0.5356 -0.0093  0.9441
  931SOL    HW2 2749   2.378   3.874   1.579  1.0745 -1.6260  1.2255
  932SOL     OW 2750   1.067   3.723   0.531 -0.0702  0.2365 -0.0119
  932SOL    HW1 2751   1.097   3.628   0.522  0.8319  0.6003 -1.0451
  932SOL    HW2 2752   1.140   3.784   0.502 -0.5517  1.2706  0.8841
  933SOL     OW 2753   2.043   2.535   0.496  0.0703  0.1169  0.1922
  933SOL    HW1 2754   2.047   2.634   0.503 -1.6352  0.2617 -0.5143
  933SOL    HW2 2755   1.956   2.507   0.455  0.4600 -1.6772  0.4845
  934SOL     OW 2756   3.262   1.473   0.221  0.7717  0.3563  0.2742
  934SOL    HW1 2757   3.214   1.386   0.236  1.8579 -0.9298 -2.8702
  934SOL    HW2 2758   3.209   1.530   0.158 -0.0292  2.1792  2.4596
  935SOL     OW 2759   2.279   1.562   0.130  0.3755 -0.2121  0.4792
  935SOL    HW1 2760   2.353   1.520   0.077 -0.2523  0.4979 -1.0164
  935SOL    HW2 2761   2.212   1.492   0.154  0.5927 -0.5197  0.2072
  936SOL     OW 2762   3.441   0.913   0.584 -0.2957 -0.1011 -0.0353
  936SOL    HW1 2763   3.411   0.879   0.672 -1.1125 -0.7876 -0.5621
  936SOL    HW2 2764   3.363   0.917   0.521  0.2337  0.5527 -0.6719
  937SOL     OW 2765   2.253   1.845   0.820 -0.2777  0.2971  0.1081
  937SOL    HW1 2766   2.191   1.919   0.843 -1.1158  0.1386 -1.4761
  937SOL    HW2 2767   2.227   1.762   0.869 -0.7499  0.4744  0.1618
  938SOL     OW 2768   1.897   0.548   1.112  0.0152 -0.2206 -0.2847
  938SOL    HW1 2769   1.913   0.647   1.117  0.7513 -0.3287 -0.4397
  938SOL    HW2 2770   1.810   0.526   1.158  0.3390  0.3725  0.6462
  939SOL     OW 2771   3.678   0.817  -0.012  0.6476  0.0685 -0.2378
  939SOL    HW1 2772   3.697   0.823   0.086 -1.3270  1.0706  0.1400
  939SOL    HW2 2773   3.721   0.735  -0.050  1.2853 -0.4315  1.4998
  940SOL     OW 2774   3.155   2.832   3.268 -0.4392  0.3737  0.2463
  940SOL    HW1 2775   3.114   2.747   3.299  0.8809 -0.5144 -0.3245
  940SOL    HW2 2776   3.088   2.906   3.273 -1.4264 -0.5646  1.3364
  941SOL     OW 2777   2.315   3.547   2.312 -0.1066  0.6928 -0.3850
  941SOL    HW1 2778   2.265   3.557   2.226  0.7344  2.3442 -0.7057
  941SOL    HW2 2779   2.333   3.637   2.352  0.3009  0.0013  1.0807
  942SOL     OW 2780   0.064   2.534   3.515  0.8525 -0.0615 -0.5990
  942SOL    HW1 2781   0.050   2.435   3.510 -0.5865  0.0681  0.4125
  942SOL    HW2 2782   0.089   2.569   3.424  0.1076 -1.1742 -1.2486
  943SOL     OW 2783   1.963   0.945   3.305  0.2522 -0.0156 -1.0503
  943SOL    HW1 2784   1.939   0.848   3.311  0.5886 -0.0615 -0.3344
  943SOL    HW2 2785   2.043   0.963   3.362 -0.9301  1.0349  0.3453
  944SOL     OW 2786   2.099   3.404   1.213  0.0233 -0.3357  0.1236
  944SOL    HW1 2787   2.003   3.432   1.203 -0.2387 -1.5480 -1.0723
  944SOL    HW2 2788   2.115   3.321   1.160  1.2671 -1.2954  1.9045
  945SOL     OW 2789   1.917   1.795   1.058  0.0393 -0.0238 -0.5062
  945SOL    HW1 2790   1.844   1.808   0.991 -0.5659 -1.1518 -0.0957
  945SOL    HW2 2791   1.887   1.731   1.129  1.1490  0.1028  0.1114
  946SOL     OW 2792   0.322   1.006   0.166  0.2618 -0.4293 -0.0108
  946SOL    HW1 2793   0.263   0.989   0.087  0.2789  0.9176 -0.3320
  946SOL    HW2 2794   0.412   0.966   0.150 -0.2877 -1.7683  0.1274
  947SOL     OW 2795   2.219   0.302   3.622 -0.8943  0.3444  0.1397
  947SOL    HW1 2796   2.244   0.251   3.705 -1.1183  1.5677  0.9845
  947SOL    HW2 2797   2.122   0.287   3.603 -0.8522  0.0937  0.1085
  948SOL     OW 2798   2.589   0.381   2.144 -0.4941  0.2777 -0.5070
  948SOL    HW1 2799   2.604   0.295   2.192 -1.3395  0.9690  1.0475
  948SOL    HW2 2800   2.671   0.438   2.152 -0.6440  0.4026  0.1345
  949SOL     OW 2801   2.088   3.583   3.496  0.1407 -0.1220 -0.3579
  949SOL    HW1 2802   2.011   3.601   3.558 -2.4215 -2.5595 -2.5594
  949SOL    HW2 2803   2.078   3.639   3.414  1.4288  0.3670 -0.2079
  950SOL     OW 2804   2.561   3.637   2.056 -0.5785 -0.5692 -0.2544
  950SOL    HW1 2805   2.463   3.621   2.044 -0.4740 -0.3024 -1.7520
  950SOL    HW2 2806   2.595   3.584   2.133 -2.1072  0.2075  1.0128
  951SOL     OW 2807   1.301   2.555   0.842 -0.3496  0.0726 -0.3076
  951SOL    HW1 2808   1.374   2.620   0.860 -1.0839  0.6387  0.6746
  951SOL    HW2 2809   1.247   2.586   0.764 -0.3382  0.3285 -0.2119
  952SOL     OW 2810   2.671   0.796   1.857  0.5393 -0.2007  0.4507
  952SOL    HW1 2811   2.612   0.765   1.932 -0.2971  0.0358 -0.0938
  952SOL    HW2 2812   2.667   0.730   1.782  0.7171 -0.0232  0.2847
  953SOL     OW 2813   3.161   1.211   2.258  0.6908  0.0119 -0.4132
  953SOL    HW1 2814   3.220   1.147   2.207  0.1290 -2.9815  2.3396
  953SOL    HW2 2815   3.079   1.230   2.204  0.7705 -1.8503 -1.2960
  954SOL     OW 2816   2.690   0.212   0.554  0.3863  0.0289  0.1891
  954SOL    HW1 2817   2.737   0.298   0.534  2.3245 -0.8520  0.8288
  954SOL    HW2 2818   2.701   0.189   0.650 -1.5253 -0.1586  0.4153
  955SOL     OW 2819   0.231   0.511   0.664 -0.3811 -0.0129  0.1184
  955SOL    HW1 2820   0.160   0.580   0.651 -1.0040 -0.7329 -0.4229
  955SOL    HW2 2821   0.193   0.433   0.714 -0.1159 -0.6041 -0.5708
  956SOL     OW 2822   0.210   2.245   3.310 -0.4401 -0.0664 -0.2205
  956SOL    HW1 2823   0.197   2.150   3.283  2.6564 -0.6774 -0.0138
  956SOL    HW2 2824   0.303   2.256   3.347 -0.5200  3.1493 -0.6935
  957SOL     OW 2825   3.358   0.476   0.525  0.2984  0.8687  0.6784
  957SOL    HW1 2826   3.347   0.433   0.614  1.2694  0.2104  0.5030
  957SOL    HW2 2827   3.444   0.527   0.523  0.7423  0.1230 -0.1558
  958SOL     OW 2828   2.279   0.492   3.794 -0.2836  0.1510 -0.0549
  958SOL    HW1 2829   2.257   0.428   3.720 -0.4249 -0.5254  0.5501
  958SOL    HW2 2830   2.225   0.467   3.875  0.2745  0.5382  0.4382
  959SOL     OW 2831   3.426   3.675   1.034  0.8056  0.0311 -0.3703
  959SOL    HW1 2832   3.449   3.744   1.102  0.7628 -0.3361  0.0223
  959SOL    HW2 2833   3.342   3.701   0.986  0.6192  0.0970 -0.0081
  960SOL     OW 2834   2.747   3.707   3.515  0.0386 -0.0834 -0.2281
  960SOL    HW1 2835   2.661   3.663   3.542 -0.3933  0.1370 -1.2031
  960SOL    HW2 2836   2.822   3.642   3.528 -0.2640 -0.2826  0.6234
  961SOL     OW 2837   2.295   2.472   3.681 -0.0590 -0.1076 -0.3701
  961SOL    HW1 2838   2.341   2.391   3.717  2.5145  1.1374 -0.6520
  961SOL    HW2 2839   2.321   2.552   3.736 -0.8696  0.8596 -1.3641
  962SOL     OW 2840   2.345   1.756   0.319 -0.3845 -0.2043 -0.0885
  962SOL    HW1 2841   2.319   1.678   0.262  0.8932 -0.7454  0.0288
  962SOL    HW2 2842   2.431   1.795   0.284 -0.8997  1.0270 -0.0155
  963SOL     OW 2843   2.578   1.201   2.586 -0.1352  0.1778 -0.6781
  963SOL    HW1 2844   2.627   1.151   2.658 -1.0447 -0.8263 -0.7318
  963SOL    HW2 2845   2.526   1.275   2.627  1.3582  1.2410 -0.6154
  964SOL     OW 2846   1.347   0.685   2.245  0.8443 -0.2319  0.1742
  964SOL    HW1 2847   1.284   0.623   2.293  1.1349 -0.0199  0.8327
  964SOL    HW2 2848   1.324   0.686   2.147 -0.0591 -0.2968  0.3790
  965SOL     OW 2849   2.262   3.052   1.761  0.2232  0.3316  0.3951
  965SOL    HW1 2850   2.279   2.966   1.809  2.3013  0.1316 -0.5438
  965SOL    HW2 2851   2.335   3.067   1.693 -1.2946  1.7510 -1.0198
  966SOL     OW 2852   3.421   0.971   2.510  0.4490  0.1317 -0.2391
  966SOL    HW1 2853   3.518   0.954   2.494  0.3325 -1.9996  0.9131
  966SOL    HW2 2854   3.367   0.920   2.444  0.1087  0.7083 -0.4055
  967SOL     OW 2855   2.678   3.008   0.903 -0.7650 -0.1205  0.5659
  967SOL    HW1 2856   2.723   2.968   0.982 -2.5038 -0.3627  1.4968
  967SOL    HW2 2857   2.700   2.955   0.821  1.4058  0.3874  0.7608
  968SOL     OW 2858   0.251   1.262   0.243  0.0228  0.0073  0.2485
  968SOL    HW1 2859   0.227   1.244   0.338  0.6682 -0.6392  0.2988
  968SOL    HW2 2860   0.271   1.176   0.197 -2.4915  0.0718 -1.1185
  969SOL     OW 2861   2.628   3.626   0.047  0.6275 -0.5163  0.1838
  969SOL    HW1 2862   2.602   3.675  -0.036  2.6251 -1.4076 -1.0339
  969SOL    HW2 2863   2.594   3.532   0.041 -0.1855 -0.2819  0.9167
  970SOL     OW 2864   2.557   0.005   1.053 -0.3556 -0.0948  0.6136
  970SOL    HW1 2865   2.568   0.105   1.048  1.8518 -0.2720  0.8232
  970SOL    HW2 2866   2.500  -0.026   0.977 -1.3730  1.3487  0.7497
  971SOL     OW 2867   2.531   1.634   3.257  0.0325 -0.0287  0.0804
  971SOL    HW1 2868   2.534   1.732   3.279  1.0139  0.0349 -0.2818
  971SOL    HW2 2869   2.530   1.623   3.158  0.0936 -0.3912  0.1202
  972SOL     OW 2870   0.254   0.671   0.005 -0.0119  0.1659 -0.0706
  972SOL    HW1 2871   0.213   0.760  -0.010 -1.9918 -0.5546  0.6334
  972SOL    HW2 2872   0.308   0.673   0.090 -0.5079  0.5657  0.2429
  973SOL     OW 2873   2.821   0.480   0.071  0.0148  0.6494 -0.2270
  973SOL    HW1 2874   2.766   0.442  -0.003 -1.8183 -1.7244  2.1581
  973SOL    HW2 2875   2.781   0.568   0.100 -0.2402  0.7823 -0.9608
  974SOL     OW 2876   2.270   1.117   1.339  0.2066  0.3880 -0.2753
  974SOL    HW1 2877   2.285   1.215   1.341  0.9916  0.3448 -2.3232
  974SOL    HW2 2878   2.330   1.073   1.406 -0.6229  1.3019  1.1378
  975SOL     OW 2879   1.788   0.786   2.435  0.1785 -0.4103 -0.6683
  975SOL    HW1 2880   1.735   0.760   2.354 -1.6016  0.9131  0.0017
  975SOL    HW2 2881   1.788   0.886   2.443  0.0779 -0.5262  1.1071
  976SOL     OW 2882   3.359   1.410   2.203 -0.5929  0.4730  0.3602
  976SOL    HW1 2883   3.327   1.328   2.251  2.7592 -0.0884  1.9561
  976SOL    HW2 2884   3.454   1.398   2.176 -0.9265  2.7013 -2.2842
  977SOL     OW 2885   0.220   2.531   3.746 -0.4097  0.0255  0.0220
  977SOL    HW1 2886   0.281   2.451   3.748 -0.2393  0.1733  1.1405
  977SOL    HW2 2887   0.153   2.519   3.673 -0.2111 -1.0097 -0.0082
  978SOL     OW 2888   3.089   1.231   0.263  0.0002 -0.2007 -0.1652
  978SOL    HW1 2889   3.029   1.231   0.343  0.6678 -0.6414  0.3407
  978SOL    HW2 2890   3.035   1.209   0.181  0.0180 -4.4433  0.7455
  979SOL     OW 2891   3.663   1.424   0.822 -0.2833 -0.3939  0.0194
  979SOL    HW1 2892   3.605   1.343   0.833  0.2089 -0.7859 -0.2071
  979SOL    HW2 2893   3.705   1.446   0.910 -0.1277 -0.6103 -0.0001
  980SOL     OW 2894   2.725   0.580   1.696  0.1087 -0.0484  0.2483
  980SOL    HW1 2895   2.662   0.543   1.629 -0.1547 -2.0750  1.5116
  980SOL    HW2 2896   2.818   0.582   1.658 -0.4489  1.6730 -1.1430
  981SOL     OW 2897   3.849   1.774   3.214 -0.4775  0.2385  0.3846
  981SOL    HW1 2898   3.755   1.753   3.188 -0.2825  1.2223 -1.2609
  981SOL    HW2 2899   3.910   1.701   3.180 -0.3041  1.1880 -1.4642
  982SOL     OW 2900   3.029   0.498   2.396  0.0286  0.4779  0.3438
  982SOL    HW1 2901   3.033   0.598   2.407 -1.7157  0.4349  1.9514
  982SOL    HW2 2902   2.948   0.463   2.442  0.8946 -1.7762  0.2891
  983SOL     OW 2903   2.155   1.674   3.617 -0.5299  0.3397  0.3193
  983SOL    HW1 2904   2.186   1.693   3.711  1.6995 -2.0351  0.2045
  983SOL    HW2 2905   2.098   1.592   3.618  0.7193 -0.5768 -0.4993
  984SOL     OW 2906   2.173   3.128   0.036  0.2019  0.3057  0.3356
  984SOL    HW1 2907   2.112   3.195  -0.005 -2.4522 -2.1287  0.0220
  984SOL    HW2 2908   2.255   3.119  -0.020 -1.5130 -0.0584 -2.2685
  985SOL     OW 2909   1.681   3.317   3.835  0.4201 -0.2184  0.0736
  985SOL    HW1 2910   1.740   3.367   3.897 -0.3106  2.1703 -1.0294
  985SOL    HW2 2911   1.699   3.345   3.741 -0.6316 -1.4082 -0.5225
  986SOL     OW 2912   2.466   0.559   0.988 -0.3946 -0.0337  0.2000
  986SOL    HW1 2913   2.431   0.588   0.899  0.0273 -0.3524 -0.0771
  986SOL    HW2 2914   2.390   0.540   1.050 -0.6791  1.5306  0.3608
  987SOL     OW 2915   2.586   2.302   1.966 -0.2917  0.0189  0.7483
  987SOL    HW1 2916   2.625   2.297   1.874 -1.9550 -0.0529  0.0103
  987SOL    HW2 2917   2.590   2.211   2.009  1.1498  0.2099  1.0573
  988SOL     OW 2918   3.717   1.321   0.321 -0.0674  0.4573  0.2000
  988SOL    HW1 2919   3.675   1.411   0.330 -1.5729 -0.3534  2.1498
  988SOL    HW2 2920   3.649   1.250   0.340  1.0587 -1.1365 -1.3072
  989SOL     OW 2921   2.412   0.641   0.726 -0.3427  0.0389 -0.3613
  989SOL    HW1 2922   2.502   0.624   0.688  0.6230  1.2952  1.2592
  989SOL    HW2 2923   2.399   0.739   0.741 -1.3705 -0.2470  0.8478
  990SOL     OW 2924   2.542   1.264   0.965  0.1346  0.6145 -0.4731
  990SOL    HW1 2925   2.535   1.182   1.022 -0.5883  0.9902 -0.0122
  990SOL    HW2 2926   2.612   1.250   0.895  1.2300  0.2455  0.6726
  991SOL     OW 2927   1.830   0.627   0.860 -0.0167  0.5743  0.3526
  991SOL    HW1 2928   1.746   0.665   0.898 -0.0865  0.5849  0.1910
  991SOL    HW2 2929   1.864   0.554   0.919 -2.0761 -1.8967 -1.3269
  992SOL     OW 2930   2.584   1.385   1.463  0.1420  0.1486  0.0427
  992SOL    HW1 2931   2.496   1.359   1.423  0.0631  0.9710 -0.3547
  992SOL    HW2 2932   2.572   1.470   1.515  0.1592 -1.0776  2.1486
  993SOL     OW 2933   1.382   0.440   1.359  0.3807  0.1507 -0.6022
  993SOL    HW1 2934   1.349   0.364   1.304  0.3709  0.4886 -1.0631
  993SOL    HW2 2935   1.438   0.405   1.434 -1.6157 -0.5154  0.6666
  994SOL     OW 2936   3.233   2.611   1.458 -0.2167  0.3173  0.4462
  994SOL    HW1 2937   3.217   2.561   1.543 -2.9039  1.4898  0.7327
  994SOL    HW2 2938   3.148   2.613   1.404  1.2942 -0.0230 -2.1103
  995SOL     OW 2939   2.680   1.146   1.600 -0.2684 -0.1847 -0.0249
  995SOL    HW1 2940   2.637   1.228   1.560  0.2550 -0.3757 -0.9882
  995SOL    HW2 2941   2.777   1.144   1.577  0.3320  0.2769  2.1948
  996SOL     OW 2942   2.150   0.415   0.184  0.2274  0.0496 -0.2456
  996SOL    HW1 2943   2.182   0.325   0.215  0.4795  0.5213  0.9158
  996SOL    HW2 2944   2.050   0.414   0.179  0.1633 -0.0342  0.6997
  997SOL     OW 2945   2.239   0.426   0.677  0.3302  0.0806 -0.4326
  997SOL    HW1 2946   2.296   0.503   0.708  0.7910 -0.7388  0.8121
  997SOL    HW2 2947   2.237   0.356   0.747 -0.4324 -0.8778 -1.3857
  998SOL     OW 2948   0.745   3.492   1.145  0.2361 -0.3668 -0.1565
  998SOL    HW1 2949   0.721   3.478   1.241  0.5552 -1.2484 -0.1959
  998SOL    HW2 2950   0.692   3.428   1.088  0.9156 -0.6712 -0.4578
  999SOL     OW 2951   2.834   1.557   1.217  0.1695  0.2370  0.0171
  999SOL    HW1 2952   2.855   1.529   1.311 -0.0182 -1.5310 -0.4249
  999SOL    HW2 2953   2.831   1.476   1.158 -0.3931  1.2394 -1.3947
 1000SOL     OW 2954   2.999   1.408   2.738 -0.0590  0.0458  0.1327
 1000SOL    HW1 2955   3.019   1.473   2.811 -1.2339  1.5259 -0.8147
 1000SOL    HW2 2956   3.068   1.335   2.739  0.9457  0.9488  1.5961
 1001SOL     OW 2957   0.110   3.701   3.349 -0.5862  0.0559  0.4054
 1001SOL    HW1 2958   0.152   3.774   3.295 -0.3301 -0.8748 -0.6823
 1001SOL    HW2 2959   0.102   3.618   3.294  0.1838 -1.1035  1.9380
 1002SOL     OW 2960   1.861   1.285   2.546 -0.5496 -0.2197 -0.3255
 1002SOL    HW1 2961   1.799   1.362   2.563 -0.0050  0.4334 -1.2126
 1002SOL    HW2 2962   1.954   1.320   2.533 -0.4392 -0.9499 -1.6031
 1003SOL     OW 2963   3.191   0.082   0.704 -0.5292 -0.3708 -0.7207
 1003SOL    HW1 2964   3.271   0.062   0.648 -1.6204 -3.4747 -1.3889
 1003SOL    HW2 2965   3.108   0.077   0.648 -1.3330  1.4133  0.2192
 1004SOL     OW 2966   2.555   0.786   1.160  0.7491  0.0611  0.2799
 1004SOL    HW1 2967   2.538   0.762   1.256  0.1581  0.8463  0.3868
 1004SOL    HW2 2968   2.511   0.718   1.101 -0.0223  0.2880  0.5722
 1005SOL     OW 2969   0.095   2.209   0.790 -0.0252  0.3807  0.2995
 1005SOL    HW1 2970   0.062   2.270   0.718  0.9126  0.6103  0.0418
 1005SOL    HW2 2971   0.049   2.230   0.876 -1.4278 -0.1400 -0.2965
 1006SOL     OW 2972   3.730   1.777   1.562 -0.0756  0.1592 -0.3268
 1006SOL    HW1 2973   3.769   1.694   1.523 -1.0537 -0.4438 -0.0539
 1006SOL    HW2 2974   3.797   1.818   1.625  0.6986 -0.0018 -1.0316
 1007SOL     OW 2975   2.210   0.625   1.110  0.4996 -0.2586 -0.0278
 1007SOL    HW1 2976   2.195   0.527   1.098  0.1618 -0.0836 -1.1668
 1007SOL    HW2 2977   2.181   0.652   1.201 -1.7591 -0.7977 -0.5079
 1008SOL     OW 2978   2.520   1.005   3.658  0.0127 -0.1428 -0.2049
 1008SOL    HW1 2979   2.539   1.075   3.589 -0.2926  0.2561  0.1098
 1008SOL    HW2 2980   2.452   0.941   3.622  0.7641 -0.6592 -0.7350
 1009SOL     OW 2981   2.690   0.097   0.269 -0.1771  0.0943 -0.2706
 1009SOL    HW1 2982   2.700   0.016   0.327 -2.3020  0.3181  0.4899
 1009SOL    HW2 2983   2.679   0.178   0.327  0.3682  0.7111 -1.0133
 1010SOL     OW 2984   2.422   1.025   1.550  0.1394  0.3318  0.0269
 1010SOL    HW1 2985   2.491   1.068   1.609  0.4750  1.2664 -1.0106
 1010SOL    HW2 2986   2.437   0.926   1.548  0.4556  0.3473  1.0678
 1011SOL     OW 2987   2.813   0.721   1.177  0.0875 -0.3236  0.2582
 1011SOL    HW1 2988   2.839   0.752   1.085 -0.7829  1.7262  0.6593
 1011SOL    HW2 2989   2.714   0.726   1.187  0.0631 -1.7163  0.9351
 1012SOL     OW 2990   1.347   0.886   1.276 -0.2362  0.3600 -0.0479
 1012SOL    HW1 2991   1.356   0.948   1.198 -0.4013 -0.4789 -0.7462
 1012SOL    HW2 2992   1.337   0.940   1.360 -2.1232  1.3303 -0.8229
 1013SOL     OW 2993   2.859   0.432   1.920 -0.2894 -0.1511  0.2137
 1013SOL    HW1 2994   2.855   0.463   2.015 -0.9540 -0.0113  0.1443
 1013SOL    HW2 2995   2.795   0.485   1.865 -1.5270 -1.6663  0.1082
 1014SOL     OW 2996   1.173   0.665   0.991 -0.3180 -0.1950 -0.1680
 1014SOL    HW1 2997   1.180   0.661   1.091 -0.7450 -0.4464 -0.1445
 1014SOL    HW2 2998   1.088   0.710   0.966  1.4246  3.2520 -0.4365
 1015SOL     OW 2999   1.488   3.369   3.191  0.0671  0.1082  0.1460
 1015SOL    HW1 3000   1.558   3.308   3.227 -0.2945  0.2273  1.0847
 1015SOL    HW2 3001   1.487   3.364   3.091 -0.2263 -1.7413  0.2035
 1016SOL     OW 3002   0.898   1.134   0.550 -0.1655 -0.3323  0.4315
 1016SOL    HW1 3003   0.948   1.067   0.494 -0.2941  0.8503 -1.1744
 1016SOL    HW2 3004   0.945   1.222   0.545 -1.8622  0.5671 -0.3525
 1017SOL     OW 3005   3.009   1.247   0.580  0.0458 -0.1810 -0.2331
 1017SOL    HW1 3006   3.090   1.233   0.637  0.2157  0.1462 -0.3900
 1017SOL    HW2 3007   2.978   1.160   0.542 -0.7814 -0.6137  1.3156
 1018SOL     OW 3008   2.384   0.846   3.015  0.0263  0.2541 -0.4519
 1018SOL    HW1 3009   2.402   0.773   2.949  2.3678  1.1128 -0.8536
 1018SOL    HW2 3010   2.328   0.917   2.972  1.3625  0.7121 -1.5298
 1019SOL     OW 3011   0.149   3.577   2.005  0.3507  0.5454 -0.3605
 1019SOL    HW1 3012   0.073   3.603   2.064 -0.3950 -0.7986 -0.6773
 1019SOL    HW2 3013   0.123   3.497   1.950  1.3682  1.1443 -1.7920
 1020SOL     OW 3014   1.230   0.521   2.421 -0.2336  0.3905 -0.6156
 1020SOL    HW1 3015   1.272   0.431   2.414 -1.3007 -0.1530 -0.1415
 1020SOL    HW2 3016   1.219   0.545   2.518  0.7846  1.4044 -0.7139
 1021SOL     OW 3017   3.004   3.736   1.663  0.0341  0.1470  0.4893
 1021SOL    HW1 3018   2.952   3.672   1.719 -3.0420  1.1230 -1.0519
 1021SOL    HW2 3019   2.955   3.754   1.578  2.8353  1.3836 -1.0213
 1022SOL     OW 3020   3.297   0.895   3.214 -0.7204  0.0305 -0.1766
 1022SOL    HW1 3021   3.215   0.837   3.219 -0.8773  0.3645  1.9714
 1022SOL    HW2 3022   3.358   0.859   3.143 -2.1744 -0.9190 -1.0243
 1023SOL     OW 3023   3.509   0.156   0.789  0.2890  0.8262  0.2127
 1023SOL    HW1 3024   3.502   0.065   0.747 -1.6217  0.6369  0.8062
 1023SOL    HW2 3025   3.545   0.147   0.881  2.5250  1.0069 -0.5893
 1024SOL     OW 3026   1.365   0.552   0.817  0.0965  0.2177 -0.3473
 1024SOL    HW1 3027   1.302   0.602   0.876 -0.6129 -0.2203 -0.7243
 1024SOL    HW2 3028   1.314   0.494   0.755  0.9103 -1.1372  0.2080
 1025SOL     OW 3029   3.592   2.110   0.562  0.0031 -0.1758 -0.1361
 1025SOL    HW1 3030   3.578   2.126   0.659  1.0013  2.1232 -0.2909
 1025SOL    HW2 3031   3.681   2.066   0.547 -0.6981 -1.6773  0.0435
 1026SOL     OW 3032   2.786   1.954   0.950 -0.1504 -0.2930 -0.0400
 1026SOL    HW1 3033   2.764   1.886   0.880 -0.5043 -0.7796  0.5316
 1026SOL    HW2 3034   2.856   2.016   0.915 -0.9508  0.0325 -1.1525
 1027SOL     OW 3035   0.945   0.830   2.170  0.2291  0.1693  0.0359
 1027SOL    HW1 3036   0.851   0.799   2.183  0.6697 -1.2492 -0.0877
 1027SOL    HW2 3037   0.978   0.872   2.255  0.8119 -2.9540  1.5013
 1028SOL     OW 3038   2.986   0.554   1.296  0.4382 -0.1279 -0.3277
 1028SOL    HW1 3039   2.902   0.601   1.268 -0.9660 -1.7244  0.9673
 1028SOL    HW2 3040   3.018   0.495   1.222 -1.1734 -1.5501  0.0200
 1029SOL     OW 3041   2.821   3.835   1.481 -0.9573  0.2401 -0.0559
 1029SOL    HW1 3042   2.871   3.852   1.396 -0.8797 -0.6499 -0.1965
 1029SOL    HW2 3043   2.724   3.820   1.460 -0.8468 -0.5100 -0.0512
 1030SOL     OW 3044   2.931   1.786   1.911 -0.0493 -0.0815 -0.0931
 1030SOL    HW1 3045   2.990   1.847   1.964  0.0291 -1.1335  1.0967
 1030SOL    HW2 3046   2.945   1.802   1.814  1.7904  0.1036  0.1688
 1031SOL     OW 3047   3.758   0.972   0.846  0.2947  0.3643 -0.1536
 1031SOL    HW1 3048   3.826   0.912   0.889 -1.0518 -0.0450  1.5039
 1031SOL    HW2 3049   3.716   0.926   0.769  1.1039  0.2009 -0.5057
 1032SOL     OW 3050   2.006   0.924   1.051  0.7287 -0.0990 -0.5244
 1032SOL    HW1 3051   1.983   0.992   0.981 -1.3661 -0.8110 -0.5945
 1032SOL    HW2 3052   2.100   0.893   1.038  0.5155  0.0627 -2.7869
 1033SOL     OW 3053   3.326   1.614   0.692 -0.6755  0.1116  0.0277
 1033SOL    HW1 3054   3.412   1.568   0.671 -1.4575 -1.6386  0.4550
 1033SOL    HW2 3055   3.281   1.640   0.606 -0.9027 -1.2785 -0.2935
 1034SOL     OW 3056   2.982   1.002   0.459  0.6750  0.1964  1.1556
 1034SOL    HW1 3057   3.046   0.930   0.433  1.2511  0.9698  0.3612
 1034SOL    HW2 3058   2.889   0.966   0.459  0.9947 -0.6526  1.2164
 1035SOL     OW 3059   3.776   0.919   2.725 -0.6796  0.1653 -0.3833
 1035SOL    HW1 3060   3.797   1.015   2.709 -0.2465  0.0081 -0.7977
 1035SOL    HW2 3061   3.735   0.879   2.643  0.9402 -0.4773 -0.9382
 1036SOL     OW 3062   2.885   2.077   3.649  0.0219 -0.5403 -0.0390
 1036SOL    HW1 3063   2.869   2.096   3.552  1.2514  0.9306  0.0224
 1036SOL    HW2 3064   2.890   1.978   3.663 -0.6542 -0.7885 -1.3833
 1037SOL     OW 3065   0.965   1.124   1.243 -0.0842 -0.0317  0.0114
 1037SOL    HW1 3066   0.989   1.057   1.313  0.3228 -1.1332 -1.1376
 1037SOL    HW2 3067   0.871   1.109   1.214  0.5191 -1.2592 -1.4389
 1038SOL     OW 3068   2.645   3.604   1.181  0.1111 -0.6165  0.4916
 1038SOL    HW1 3069   2.641   3.619   1.280  1.8425 -0.3592  0.5522
 1038SOL    HW2 3070   2.623   3.689   1.133  0.3802 -0.4344  0.6864
 1039SOL     OW 3071   2.379   1.715   1.119  0.2470 -0.0322 -0.2427
 1039SOL    HW1 3072   2.456   1.653   1.107 -0.4376 -1.2184  1.1565
 1039SOL    HW2 3073   2.390   1.767   1.203  0.8697  1.9088 -1.4578
 1040SOL     OW 3074   3.812   2.572   1.786 -0.2997  0.3082  0.7109
 1040SOL    HW1 3075   3.734   2.537   1.733  0.2841 -1.2637  0.8535
 1040SOL    HW2 3076   3.870   2.627   1.727 -1.2977  1.1757  0.5047
 1041SOL     OW 3077   0.220   1.193   0.505 -0.7612 -0.1816  0.8615
 1041SOL    HW1 3078   0.291   1.181   0.575 -0.4334  1.8737  0.9420
 1041SOL    HW2 3079   0.142   1.242   0.545 -0.9740  0.1653  0.0317
 1042SOL     OW 3080   2.517   0.195   1.365 -0.0810  0.2458 -0.2286
 1042SOL    HW1 3081   2.450   0.150   1.426 -0.4587  2.0379  0.7504
 1042SOL    HW2 3082   2.520   0.147   1.278 -0.8015 -1.3768  0.5957
 1043SOL     OW 3083   3.192   1.521   3.633  0.2995  0.4401 -0.0532
 1043SOL    HW1 3084   3.146   1.530   3.721  0.2463  1.4986 -0.1853
 1043SOL    HW2 3085   3.184   1.426   3.602  0.5668 -0.0198  1.2017
 1044SOL     OW 3086   2.984   2.103   0.796 -0.2053 -0.4701  0.1317
 1044SOL    HW1 3087   3.019   2.083   0.705 -0.0107 -0.7101  0.2567
 1044SOL    HW2 3088   3.061   2.123   0.857 -0.3943  0.9367 -0.0436
 1045SOL     OW 3089   2.599   1.330   0.540 -0.1203 -0.3382  0.5283
 1045SOL    HW1 3090   2.529   1.400   0.530 -0.5397 -0.6728  1.0772
 1045SOL    HW2 3091   2.566   1.243   0.504 -0.0315 -0.5201  0.8779
 1046SOL     OW 3092   0.929   1.192   0.102  0.8175 -0.0022 -0.0763
 1046SOL    HW1 3093   0.829   1.185   0.112  0.5806  0.8118 -1.4942
 1046SOL    HW2 3094   0.971   1.106   0.130 -0.1441  0.1262  1.9108
 1047SOL     OW 3095   1.760   1.619   0.718  0.0384  1.2295  0.5472
 1047SOL    HW1 3096   1.854   1.592   0.736 -0.3902 -2.2044 -1.4358
 1047SOL    HW2 3097   1.750   1.641   0.621 -1.4448  0.0454  0.3955
 1048SOL     OW 3098   3.327   1.885   2.094 -0.2829  0.6031 -0.4174
 1048SOL    HW1 3099   3.355   1.973   2.132 -0.8121  0.6896 -0.2283
 1048SOL    HW2 3100   3.322   1.817   2.167  1.7538 -0.0166 -0.7898
 1049SOL     OW 3101   3.519   1.173   0.437  0.0033 -0.3913  0.5952
 1049SOL    HW1 3102   3.469   1.098   0.394  0.4460 -0.3169 -0.0584
 1049SOL    HW2 3103   3.537   1.150   0.533  0.4545 -1.2824  0.3074
 1050SOL     OW 3104   2.484   2.645   0.577  0.3716  0.2209 -0.6014
 1050SOL    HW1 3105   2.451   2.571   0.635  0.7626 -1.0699 -1.9523
 1050SOL    HW2 3106   2.417   2.720   0.577 -0.0388 -0.1243  0.7752
 1051SOL     OW 3107   3.113   0.645   0.613 -0.0139 -0.4709 -0.0498
 1051SOL    HW1 3108   3.168   0.572   0.572 -0.4368 -0.0983 -1.3291
 1051SOL    HW2 3109   3.100   0.718   0.546 -2.2304 -0.6265  0.1459
 1052SOL     OW 3110   3.133   0.391   1.935  0.0649 -0.0591  0.0502
 1052SOL    HW1 3111   3.041   0.427   1.916 -0.3145 -0.5541  0.8779
 1052SOL    HW2 3112   3.125   0.306   1.988  1.0120  0.0791  0.4299
 1053SOL     OW 3113   1.779   3.134   0.471  0.2887  0.4005 -0.0022
 1053SOL    HW1 3114   1.754   3.208   0.533 -0.8033 -1.4305  1.8968
 1053SOL    HW2 3115   1.822   3.060   0.523 -1.2113 -1.4848 -1.2710
 1054SOL     OW 3116   2.095   0.663   1.652 -0.1712  0.0831 -0.1775
 1054SOL    HW1 3117   2.016   0.721   1.674 -1.5590 -1.0165 -1.9243
 1054SOL    HW2 3118   2.133   0.626   1.736 -0.4537  1.9549  0.8355
 1055SOL     OW 3119   2.888   0.186   1.679 -0.0013 -0.0193 -0.5567
 1055SOL    HW1 3120   2.881   0.127   1.760  0.4316 -0.6850 -0.9990
 1055SOL    HW2 3121   2.850   0.139   1.600 -0.3568  0.6052 -0.7636
 1056SOL     OW 3122   0.927   3.279   3.260 -0.0932 -0.1340 -0.5219
 1056SOL    HW1 3123   1.019   3.272   3.223 -0.4530 -0.0944 -1.4554
 1056SOL    HW2 3124   0.925   3.242   3.353  1.1052  0.8963 -0.0543
 1057SOL     OW 3125   3.212   3.814   1.389 -0.2635 -0.2086 -0.6501
 1057SOL    HW1 3126   3.141   3.856   1.333 -0.3785 -0.6196 -0.8120
 1057SOL    HW2 3127   3.190   3.718   1.405  0.9269 -0.7181 -1.8344
 1058SOL     OW 3128   1.989   0.934   1.670 -0.4217 -0.2239  0.0483
 1058SOL    HW1 3129   2.001   0.937   1.570 -0.0322  1.0089  0.1202
 1058SOL    HW2 3130   1.898   0.969   1.693  0.0483  0.9495  0.2035
 1059SOL     OW 3131   0.520   1.256   3.182  0.3490 -0.1577 -0.0432
 1059SOL    HW1 3132   0.612   1.295   3.188  0.8784 -0.9199 -2.4001
 1059SOL    HW2 3133   0.525   1.157   3.190 -0.2404 -0.2239 -0.4540
 1060SOL     OW 3134   2.060   3.338   0.848  0.2715 -0.1767 -0.3340
 1060SOL    HW1 3135   1.963   3.318   0.855  0.5618 -1.0928  1.6513
 1060SOL    HW2 3136   2.109   3.255   0.820  0.6396 -0.2027  0.3540
 1061SOL     OW 3137   0.828   2.702   0.854 -0.2176 -0.0607  0.2609
 1061SOL    HW1 3138   0.844   2.745   0.765  0.0939 -1.4893 -0.4112
 1061SOL    HW2 3139   0.889   2.742   0.922  1.7580 -0.9935 -0.8696
 1062SOL     OW 3140   2.048   3.785   1.637  0.2412  0.2093  0.2193
 1062SOL    HW1 3141   2.040   3.690   1.667  0.6254  0.0174 -0.2700
 1062SOL    HW2 3142   2.066   3.787   1.539 -1.1254  0.8221 -0.0419
 1063SOL     OW 3143   0.735   1.917   2.372  0.0119  0.1321  0.1444
 1063SOL    HW1 3144   0.797   1.978   2.322  1.2318 -0.9537  0.2833
 1063SOL    HW2 3145   0.678   1.971   2.434 -0.6203  1.3642 -1.4332
 1064SOL     OW 3146   2.670   2.423   1.253  0.4912  0.5334 -0.2299
 1064SOL    HW1 3147   2.615   2.351   1.209  0.3163  0.4967  0.0463
 1064SOL    HW2 3148   2.692   2.494   1.186 -1.1647  1.3014  0.0033
 1065SOL     OW 3149   0.290   3.472   0.761 -0.0187  0.3271  0.3972
 1065SOL    HW1 3150   0.275   3.440   0.854 -2.9488  2.9837  1.0016
 1065SOL    HW2 3151   0.325   3.565   0.763 -0.1874  0.4481 -1.1810
 1066SOL     OW 3152   2.601   0.158   0.012  0.3236 -0.2871  0.0629
 1066SOL    HW1 3153   2.634   0.130   0.102 -1.2937  1.3340  1.2415
 1066SOL    HW2 3154   2.630   0.252  -0.007 -0.8812  0.0415 -0.2631
 1067SOL     OW 3155   2.186   0.994   0.559  0.5938 -0.3078  0.2445
 1067SOL    HW1 3156   2.133   0.912   0.583 -1.0206  0.8365  0.8127
 1067SOL    HW2 3157   2.124   1.063   0.520  1.7596  0.9233  0.5060
 1068SOL     OW 3158   3.516   0.244   1.528 -0.0069 -0.8823  0.4682
 1068SOL    HW1 3159   3.536   0.313   1.598 -1.1105  0.4078 -0.4301
 1068SOL    HW2 3160   3.426   0.262   1.489  0.1211 -2.2539 -0.5082
 1069SOL     OW 3161   3.366   3.181   1.227  0.1259  0.0372 -0.0294
 1069SOL    HW1 3162   3.339   3.255   1.165 -2.8426 -1.2876 -0.4701
 1069SOL    HW2 3163   3.309   3.184   1.309  1.7638 -0.2361  1.1617
 1070SOL     OW 3164   3.794   2.184   2.513  0.1283  0.2693 -0.1663
 1070SOL    HW1 3165   3.750   2.119   2.451  0.3120 -0.4477  0.4379
 1070SOL    HW2 3166   3.854   2.134   2.576  0.0607  1.0049  0.4886
 1071SOL     OW 3167   2.181   2.459   1.231 -0.2623 -0.7248 -0.0691
 1071SOL    HW1 3168   2.094   2.413   1.248  0.7260 -2.4957  0.4433
 1071SOL    HW2 3169   2.255   2.408   1.275  0.9903  1.0626  0.0097
 1072SOL     OW 3170   3.115   0.308   1.670  0.0555  0.7599  0.7343
 1072SOL    HW1 3171   3.032   0.251   1.673  0.9005 -0.4582  1.5294
 1072SOL    HW2 3172   3.141   0.335   1.762  0.3516  1.4642  0.4557
 1073SOL     OW 3173   3.147   1.835   2.538  0.2090 -0.4494 -0.6577
 1073SOL    HW1 3174   3.112   1.746   2.507 -0.8947 -0.2114 -0.1271
 1073SOL    HW2 3175   3.103   1.907   2.485  0.8607 -0.1990 -0.8596
 1074SOL     OW 3176   3.364   1.843   0.847  0.1125  0.4890 -0.4268
 1074SOL    HW1 3177   3.341   1.760   0.796 -1.8206 -0.2110  1.4271
 1074SOL    HW2 3178   3.451   1.829   0.894 -0.9163 -1.1961  1.1307
 1075SOL     OW 3179   2.000   0.690   0.291 -0.2296 -0.7708  0.0956
 1075SOL    HW1 3180   2.064   0.708   0.217 -0.2190 -2.7150 -0.4131
 1075SOL    HW2 3181   2.047   0.702   0.379  0.7062 -1.6386 -0.2674
 1076SOL     OW 3182   2.158   1.692   1.002 -0.2296 -0.6602 -0.0626
 1076SOL    HW1 3183   2.083   1.729   1.057  0.9237  1.8830 -0.0175
 1076SOL    HW2 3184   2.244   1.704   1.052  0.5415 -0.7025 -1.3385
 1077SOL     OW 3185   3.366   2.853   1.079  0.0838  0.2994 -0.1646
 1077SOL    HW1 3186   3.428   2.927   1.053  0.1327  0.7207  1.0805
 1077SOL    HW2 3187   3.365   2.843   1.179 -0.1096 -1.2277 -0.2908
 1078SOL     OW 3188   2.811   0.431   3.073  0.0158  0.5871  0.4110
 1078SOL    HW1 3189   2.761   0.511   3.039 -1.9353 -0.6447  0.2272
 1078SOL    HW2 3190   2.843   0.377   2.995 -0.3941  0.1752  0.5274
 1079SOL     OW 3191   0.860   1.654   1.655  0.4302 -0.0765 -0.4376
 1079SOL    HW1 3192   0.771   1.699   1.644  0.8369  0.5241 -1.4656
 1079SOL    HW2 3193   0.929   1.706   1.604  1.3109 -0.7159  0.0865
 1080SOL     OW 3194   2.033   0.948   1.332  0.0715 -0.3786 -0.0405
 1080SOL    HW1 3195   2.116   1.003   1.321 -0.2640  0.1339 -0.0362
 1080SOL    HW2 3196   1.983   0.945   1.246 -0.8087  0.7937  0.4117
 1081SOL     OW 3197   1.948   1.565   0.247 -0.0854 -0.0364  0.5214
 1081SOL    HW1 3198   2.014   1.491   0.231  0.3952  0.6566 -0.8602
 1081SOL    HW2 3199   1.995   1.642   0.290 -0.2440  0.0326  0.5704
 1082SOL     OW 3200   2.924   0.714   3.661  0.1709  0.2278  0.4985
 1082SOL    HW1 3201   2.877   0.786   3.711  0.6546 -0.2305  1.6413
 1082SOL    HW2 3202   2.903   0.625   3.702  1.4311 -0.0480  0.5853
 1083SOL     OW 3203   2.760   3.185   1.395 -0.2696 -0.6079 -0.0091
 1083SOL    HW1 3204   2.771   3.212   1.490  2.1291  1.1767 -0.6885
 1083SOL    HW2 3205   2.791   3.090   1.384  0.1472 -0.5808  0.8585
 1084SOL     OW 3206   2.661   0.607   0.654 -0.2309 -0.2972  0.6034
 1084SOL    HW1 3207   2.736   0.564   0.705 -1.1951 -0.8559  1.5940
 1084SOL    HW2 3208   2.680   0.600   0.556  2.0249  1.4571  0.8243
 1085SOL     OW 3209   3.309   2.296   0.218 -0.1891  0.1675 -0.0376
 1085SOL    HW1 3210   3.375   2.371   0.219 -0.0533  0.0481  1.1162
 1085SOL    HW2 3211   3.327   2.237   0.139  0.4517  0.6880 -0.2852
 1086SOL     OW 3212   2.591   3.296   1.213  0.0676  0.1219 -0.2015
 1086SOL    HW1 3213   2.591   3.396   1.218 -2.5198  0.1906  0.2037
 1086SOL    HW2 3214   2.658   3.260   1.278  1.4553  1.5568 -0.7551
 1087SOL     OW 3215   2.655   0.941   0.800 -0.1968 -0.1548  0.0072
 1087SOL    HW1 3216   2.660   1.041   0.795 -0.1534 -0.1774 -0.4492
 1087SOL    HW2 3217   2.558   0.913   0.800 -0.2953 -0.2474 -3.4224
 1088SOL     OW 3218   2.835   3.710   2.101  0.2050  0.2218  0.2379
 1088SOL    HW1 3219   2.850   3.698   2.199  0.3981  0.4803  0.2410
 1088SOL    HW2 3220   2.740   3.688   2.079  0.3350 -0.5000  0.3715
 1089SOL     OW 3221   2.154   0.761   0.056 -0.3029  0.4994 -0.3308
 1089SOL    HW1 3222   2.133   0.804  -0.032  1.4275  1.4484 -0.3357
 1089SOL    HW2 3223   2.244   0.717   0.051  0.1058  1.1026  1.1148
 1090SOL     OW 3224   2.974   2.141   3.366 -0.1658  0.2447 -0.4237
 1090SOL    HW1 3225   2.944   2.235   3.348  2.7318  1.3373 -0.1761
 1090SOL    HW2 3226   3.062   2.143   3.413 -0.4613 -2.6400  0.4379
 1091SOL     OW 3227   1.499   0.774   0.518  0.2762  0.0287 -0.2635
 1091SOL    HW1 3228   1.491   0.814   0.426 -1.0500  0.4695  0.0234
 1091SOL    HW2 3229   1.544   0.840   0.579  1.1847 -0.2759 -0.5971
 1092SOL     OW 3230   2.170   3.107   2.454 -0.1841 -0.5800  0.2016
 1092SOL    HW1 3231   2.154   3.205   2.439 -1.7710 -0.8502 -0.0730
 1092SOL    HW2 3232   2.197   3.092   2.549  1.5538  0.2608 -0.1244
 1093SOL     OW 3233   1.582   1.090   0.102 -0.4474  0.1445 -0.2971
 1093SOL    HW1 3234   1.577   1.189   0.093  1.0408  0.2061 -0.6713
 1093SOL    HW2 3235   1.589   1.048   0.011  1.9713 -0.0620 -0.0976
 1094SOL     OW 3236   2.469   1.282   2.849  0.4593  0.1543  0.1555
 1094SOL    HW1 3237   2.371   1.283   2.869  0.6972  2.9734  1.5592
 1094SOL    HW2 3238   2.516   1.228   2.919  0.1271  0.7351  0.8428
 1095SOL     OW 3239   0.514   1.677   3.031 -0.2962 -0.2164  0.0403
 1095SOL    HW1 3240   0.432   1.677   2.975 -1.4741  1.1989  1.6626
 1095SOL    HW2 3241   0.523   1.590   3.080 -0.9165 -0.3239 -0.0391
 1096SOL     OW 3242   3.283   0.504   2.756 -0.4694  0.0956 -0.3593
 1096SOL    HW1 3243   3.275   0.429   2.821  1.2993 -0.1687 -0.3989
 1096SOL    HW2 3244   3.310   0.587   2.803 -0.8154  0.3211 -0.5468
 1097SOL     OW 3245   0.606   0.206   1.417 -0.3530  0.0546  0.1952
 1097SOL    HW1 3246   0.514   0.171   1.434 -0.8560  1.0975 -0.2865
 1097SOL    HW2 3247   0.670   0.165   1.482 -0.7750 -2.2248 -0.7293
 1098SOL     OW 3248   0.207   1.106   2.126 -0.1015  0.3733  0.1956
 1098SOL    HW1 3249   0.249   1.186   2.167 -0.0376  0.0538  0.7625
 1098SOL    HW2 3250   0.113   1.095   2.161  0.3991 -0.6521  1.3225
 1099SOL     OW 3251   1.853   2.163   3.146  0.6965 -0.0223  0.4497
 1099SOL    HW1 3252   1.930   2.217   3.181  0.8570  0.4347 -0.5717
 1099SOL    HW2 3253   1.888   2.074   3.115  0.5181 -0.5173  1.6301
 1100SOL     OW 3254   1.917   1.905   2.783 -0.0890 -0.1456  0.1438
 1100SOL    HW1 3255   1.940   1.810   2.761  1.3359  0.7142 -2.4773
 1100SOL    HW2 3256   1.850   1.939   2.717  2.1832  1.7108 -1.3798
 1101SOL     OW 3257   2.271   0.833   2.023  0.1198 -0.7907  0.4833
 1101SOL    HW1 3258   2.236   0.894   1.951  1.7543 -0.1406  0.1874
 1101SOL    HW2 3259   2.326   0.886   2.088 -0.7578 -1.4962  1.8496
 1102SOL     OW 3260   2.567   1.502   1.136  0.0578  0.2143 -0.2647
 1102SOL    HW1 3261   2.656   1.524   1.177 -0.4356 -1.2672  1.7500
 1102SOL    HW2 3262   2.578   1.428   1.069  0.0139 -2.4739  2.4766
 1103SOL     OW 3263   3.718   1.583   2.982  0.0209  0.4150  0.5042
 1103SOL    HW1 3264   3.776   1.524   3.038 -0.7507  0.3283  1.2248
 1103SOL    HW2 3265   3.647   1.624   3.039 -0.9857  0.0640 -0.4632
 1104SOL     OW 3266   1.985   3.799   0.022  0.3154  0.6944  0.5622
 1104SOL    HW1 3267   2.085   3.798   0.033  0.1700  1.5553  2.4843
 1104SOL    HW2 3268   1.952   3.893   0.028 -0.8722  0.2159  4.0130
 1105SOL     OW 3269   0.553   1.168   2.189 -0.6808 -0.3828  0.0057
 1105SOL    HW1 3270   0.617   1.162   2.266 -0.7423  0.2021  0.1034
 1105SOL    HW2 3271   0.538   1.076   2.152 -0.9256 -0.7244  0.9151
 1106SOL     OW 3272   2.628   2.025   2.342 -0.5409  0.0354  0.4753
 1106SOL    HW1 3273   2.706   2.019   2.279 -0.3258 -0.8957  0.8182
 1106SOL    HW2 3274   2.583   2.113   2.330  1.6030  1.3609  1.4576
 1107SOL     OW 3275   2.576   1.496   2.415 -0.5960 -0.2597 -0.2611
 1107SOL    HW1 3276   2.668   1.494   2.453 -0.7695 -1.3308  0.1497
 1107SOL    HW2 3277   2.508   1.490   2.489 -1.0170  0.9206 -0.5292
 1108SOL     OW 3278   2.422   1.126   0.062 -0.3203 -0.0223  0.0173
 1108SOL    HW1 3279   2.446   1.062  -0.011  1.1555  1.5814 -0.9795
 1108SOL    HW2 3280   2.329   1.107   0.094  0.0681 -2.6489 -0.1979
 1109SOL     OW 3281   0.469   2.226   3.392 -0.2104 -0.5990  0.1080
 1109SOL    HW1 3282   0.552   2.280   3.380 -1.4253  1.0582 -1.2923
 1109SOL    HW2 3283   0.493   2.129   3.396  1.6413 -0.3595 -2.6772
 1110SOL     OW 3284   3.355   0.492   3.100 -0.5150  0.0404  0.2393
 1110SOL    HW1 3285   3.418   0.440   3.158  0.4278  1.3982  0.4978
 1110SOL    HW2 3286   3.263   0.488   3.138 -0.4560 -1.3493  0.2851
 1111SOL     OW 3287   1.270   1.418   3.049 -0.0922 -0.2262  0.4073
 1111SOL    HW1 3288   1.350   1.358   3.039 -0.0202 -0.2958  1.3518
 1111SOL    HW2 3289   1.299   1.513   3.037 -0.0480 -0.3091 -0.2006
 1112SOL     OW 3290   0.530   0.990   3.200  0.2498  0.2929 -0.0553
 1112SOL    HW1 3291   0.510   0.957   3.107  0.2361 -0.1918  0.1155
 1112SOL    HW2 3292   0.621   0.959   3.227 -0.5988 -1.5490  0.9493
 1113SOL     OW 3293   0.771   0.940   3.328  0.2843 -0.1496  0.1802
 1113SOL    HW1 3294   0.814   0.853   3.306  0.5547  0.5147 -2.3591
 1113SOL    HW2 3295   0.841   1.011   3.334  0.0179  0.0112  1.7174
 1114SOL     OW 3296   3.599   0.501   2.053  0.0016 -0.3782  0.0680
 1114SOL    HW1 3297   3.658   0.490   2.134 -1.1992 -2.2897  0.7436
 1114SOL    HW2 3298   3.542   0.419   2.042 -0.1731  0.0137 -2.4978
 1115SOL     OW 3299   2.123   0.662   0.562 -0.6059  0.0433  0.0279
 1115SOL    HW1 3300   2.159   0.577   0.601  1.2576  1.3664  1.3245
 1115SOL    HW2 3301   2.052   0.698   0.622  1.9456  1.8370  2.1943
 1116SOL     OW 3302   1.779   1.204   2.832  0.3770  0.3320 -0.5579
 1116SOL    HW1 3303   1.789   1.221   2.734 -0.6085 -1.5290 -1.0434
 1116SOL    HW2 3304   1.810   1.111   2.853 -2.4115 -0.5275  0.2409
 1117SOL     OW 3305   0.251   1.264   2.845  0.0252  0.5725  0.1549
 1117SOL    HW1 3306   0.328   1.212   2.809  0.1599  1.1737 -0.4427
 1117SOL    HW2 3307   0.232   1.235   2.939  0.7649  0.1922  0.1926
 1118SOL     OW 3308   1.623   3.608   2.554 -0.3341  0.3605 -0.2283
 1118SOL    HW1 3309   1.552   3.602   2.484  0.1229  1.7822 -0.8451
 1118SOL    HW2 3310   1.712   3.621   2.510  0.4280 -1.8763  0.5091
 1119SOL     OW 3311   1.352   2.215   0.100  0.0561 -0.4417  0.1543
 1119SOL    HW1 3312   1.325   2.290   0.160  0.1376  0.1040 -0.4786
 1119SOL    HW2 3313   1.408   2.251   0.025  2.3862 -1.4870  1.3038
 1120SOL     OW 3314   0.593   1.913   3.182  0.9769  0.1961 -0.0575
 1120SOL    HW1 3315   0.603   1.887   3.278  0.9782  0.3166 -0.0259
 1120SOL    HW2 3316   0.539   1.843   3.134 -1.6465  1.6136  0.6681
 1121SOL     OW 3317   2.697   2.278   3.495 -0.0112 -0.1288 -0.7734
 1121SOL    HW1 3318   2.764   2.329   3.441  0.4438 -0.1130 -0.2056
 1121SOL    HW2 3319   2.688   2.319   3.585  2.5748 -2.6855  0.8106
 1122SOL     OW 3320   1.996   0.127   3.386 -0.4446  0.1235  0.0441
 1122SOL    HW1 3321   1.902   0.154   3.365 -0.7099 -1.0013 -0.2784
 1122SOL    HW2 3322   2.022   0.162   3.476 -1.5518 -0.4619  0.6150
 1123SOL     OW 3323  -0.014   1.535   1.455  0.0095  0.0510  0.1609
 1123SOL    HW1 3324   0.019   1.584   1.374  0.7512 -1.4631 -0.5022
 1123SOL    HW2 3325   0.053   1.465   1.481 -0.6637 -0.1236  1.5163
 1124SOL     OW 3326   2.869   2.104   2.132  0.1531 -0.0786 -0.2919
 1124SOL    HW1 3327   2.804   2.075   2.062  0.8269  0.2578 -1.0739
 1124SOL    HW2 3328   2.959   2.065   2.111 -0.4740 -3.8244  2.8232
 1125SOL     OW 3329   2.489   1.064   1.147  0.6865 -0.9227  0.8672
 1125SOL    HW1 3330   2.542   0.981   1.166  0.3692 -0.9840  1.4846
 1125SOL    HW2 3331   2.409   1.066   1.205  0.2042 -0.6355  0.2024
 1126SOL     OW 3332   0.607   3.569   2.082 -0.5629  0.6454  0.2213
 1126SOL    HW1 3333   0.513   3.540   2.099  0.1076 -1.9226 -0.0637
 1126SOL    HW2 3334   0.624   3.572   1.983  0.6159 -2.7528  0.1827
 1127SOL     OW 3335   3.586   2.530   1.626  0.5540 -0.0639  0.2462
 1127SOL    HW1 3336   3.548   2.446   1.588  0.9148  0.1682 -0.6550
 1127SOL    HW2 3337   3.520   2.570   1.690  0.4987 -1.1646  0.8966
 1128SOL     OW 3338   3.253   3.408   0.223 -0.1419 -0.3623 -0.2773
 1128SOL    HW1 3339   3.302   3.333   0.268 -0.1288  0.2747  0.8070
 1128SOL    HW2 3340   3.296   3.428   0.135  1.8644  0.4645  0.8106
 1129SOL     OW 3341   2.187   0.973   3.458 -0.2475 -0.3540  0.2040
 1129SOL    HW1 3342   2.242   0.961   3.376  0.0507 -0.7427  0.4567
 1129SOL    HW2 3343   2.190   1.069   3.487  3.6095 -0.9433  2.4760
 1130SOL     OW 3344   2.975   0.299   0.365 -0.5506 -0.3715  0.2715
 1130SOL    HW1 3345   3.036   0.316   0.288 -2.5460 -0.5412 -1.4134
 1130SOL    HW2 3346   2.978   0.201   0.388 -0.8088 -0.5275 -0.3481
 1131SOL     OW 3347   2.332   3.499   0.669 -0.2419  0.3744 -0.4470
 1131SOL    HW1 3348   2.310   3.521   0.764 -0.3884 -0.3881 -0.2948
 1131SOL    HW2 3349   2.352   3.583   0.619 -3.1644  1.1515 -0.4940
 1132SOL     OW 3350   3.424   0.114   1.875 -0.7025 -0.3265 -0.2375
 1132SOL    HW1 3351   3.376   0.063   1.803 -0.0727 -1.2924  0.0039
 1132SOL    HW2 3352   3.520   0.127   1.848 -0.5495 -0.3887  0.2744
 1133SOL     OW 3353   3.117   1.283   3.554 -0.0376 -0.0498  0.3835
 1133SOL    HW1 3354   3.087   1.200   3.602 -1.8850  0.4364  0.1781
 1133SOL    HW2 3355   3.152   1.258   3.463  0.1593 -0.6758  0.6268
 1134SOL     OW 3356   1.762   1.921   0.229  0.5982  0.1605 -0.4470
 1134SOL    HW1 3357   1.686   1.856   0.234 -0.8101  1.7903  0.5367
 1134SOL    HW2 3358   1.812   1.919   0.316 -0.0417  1.0354 -0.0447
 1135SOL     OW 3359   1.674   0.175   2.325 -0.5413  0.4453  0.2567
 1135SOL    HW1 3360   1.708   0.269   2.319  0.4336  0.1052  0.3614
 1135SOL    HW2 3361   1.709   0.122   2.248 -0.1669 -0.1214  0.8081
 1136SOL     OW 3362   2.707   0.894   0.504 -0.0191  0.0791 -0.6546
 1136SOL    HW1 3363   2.716   0.909   0.602 -0.3696 -0.0725 -0.5964
 1136SOL    HW2 3364   2.644   0.819   0.488 -0.4020  0.4689 -1.0095
 1137SOL     OW 3365   0.060   1.430   1.776  0.4060 -0.2943 -0.4558
 1137SOL    HW1 3366   0.105   1.515   1.801  1.0734 -0.6037 -0.5870
 1137SOL    HW2 3367   0.124   1.354   1.787 -0.4737 -0.9111  0.6284
 1138SOL     OW 3368   2.900   0.916   1.961 -0.8129 -0.9842 -0.1141
 1138SOL    HW1 3369   2.833   0.862   1.909 -1.0096 -0.3747 -0.4966
 1138SOL    HW2 3370   2.932   0.992   1.905 -1.3537 -0.0615  0.8147
 1139SOL     OW 3371   2.077   2.626   2.649 -0.4002  0.0223  0.3797
 1139SOL    HW1 3372   2.013   2.550   2.634 -1.0747  0.5388  0.5748
 1139SOL    HW2 3373   2.144   2.600   2.718 -0.1765 -0.6582 -0.0789
 1140SOL     OW 3374   1.644   2.723   3.125 -0.4120 -0.1367  0.4135
 1140SOL    HW1 3375   1.652   2.663   3.204  0.6552  2.1768  2.1822
 1140SOL    HW2 3376   1.734   2.741   3.086 -0.5569  1.1603  0.6254
 1141SOL     OW 3377   0.266   1.985   2.916  0.2969 -0.3371  0.3770
 1141SOL    HW1 3378   0.197   1.923   2.952  0.3750 -1.6549 -1.6025
 1141SOL    HW2 3379   0.249   2.077   2.950 -2.4929 -0.5893 -0.0973
 1142SOL     OW 3380   3.440   2.785   1.356 -0.0310  0.2082 -0.0506
 1142SOL    HW1 3381   3.492   2.827   1.430  1.1906 -2.0566  0.4839
 1142SOL    HW2 3382   3.354   2.748   1.391  0.0838  0.0222  0.0379
 1143SOL     OW 3383   2.955   1.030   2.402 -0.2598 -0.6200 -0.0139
 1143SOL    HW1 3384   3.031   1.084   2.366 -0.9583  0.0460 -0.5565
 1143SOL    HW2 3385   2.871   1.085   2.399 -0.4683 -0.7367  2.1490
 1144SOL     OW 3386   3.102   0.238   3.387  0.3403  0.2843  0.4151
 1144SOL    HW1 3387   3.008   0.242   3.421 -0.5580 -0.4670 -1.7924
 1144SOL    HW2 3388   3.144   0.152   3.414  0.4794  0.6759  1.5179
 1145SOL     OW 3389   2.330   0.915   0.350  0.3204 -0.1882  0.0351
 1145SOL    HW1 3390   2.285   0.914   0.440  2.3340 -0.9988  1.1035
 1145SOL    HW2 3391   2.279   0.975   0.288 -0.6212  1.1495  1.9866
 1146SOL     OW 3392   3.817   1.931   0.853  0.3162  0.1589  0.5277
 1146SOL    HW1 3393   3.844   1.933   0.757  1.9941  1.0372  0.9765
 1146SOL    HW2 3394   3.788   2.022   0.882  1.0863  0.2127  1.1677
 1147SOL     OW 3395   2.516   3.381   0.217  0.6122  0.0363  0.0561
 1147SOL    HW1 3396   2.417   3.367   0.221  0.5859  0.1503 -0.1711
 1147SOL    HW2 3397   2.546   3.378   0.122  0.6737  1.0323  0.0247
 1148SOL     OW 3398   0.672   0.750   2.210 -0.0390 -0.0319  0.1367
 1148SOL    HW1 3399   0.661   0.658   2.246  0.9640  0.3335  1.5004
 1148SOL    HW2 3400   0.646   0.816   2.281  0.6093  0.7246 -0.3136
 1149SOL     OW 3401   3.507   3.574   2.791  0.2485  0.1532  0.2915
 1149SOL    HW1 3402   3.594   3.614   2.761  0.3741  1.1058  1.8519
 1149SOL    HW2 3403   3.502   3.574   2.891 -0.5154 -2.1566  0.3158
 1150SOL     OW 3404   0.883   0.610   3.607  0.1606  0.5025 -0.3834
 1150SOL    HW1 3405   0.948   0.535   3.620  1.2519  1.1031 -1.9941
 1150SOL    HW2 3406   0.857   0.615   3.510  0.0576  2.1251 -0.2993
 1151SOL     OW 3407   3.397   2.299   2.895  0.3815  0.1679  0.1361
 1151SOL    HW1 3408   3.378   2.242   2.815 -1.2946  0.5083  0.2749
 1151SOL    HW2 3409   3.327   2.369   2.905 -0.1325 -0.5658  2.5371
 1152SOL     OW 3410   1.274   0.975   2.348  0.2692  0.0448 -0.3342
 1152SOL    HW1 3411   1.309   0.899   2.293  1.4083 -1.2279  1.9868
 1152SOL    HW2 3412   1.180   0.956   2.375  0.6341 -0.6900  0.4478
 1153SOL     OW 3413   0.495   1.142   2.786  0.5919  0.7147 -0.2412
 1153SOL    HW1 3414   0.540   1.073   2.842 -0.2142  0.2791 -0.1118
 1153SOL    HW2 3415   0.563   1.202   2.745  1.6214 -2.0022 -2.8817
 1154SOL     OW 3416   2.469   0.121   2.579 -0.2167  0.0003  0.3958
 1154SOL    HW1 3417   2.378   0.081   2.579 -1.2892  2.2089 -1.5660
 1154SOL    HW2 3418   2.517   0.094   2.663 -3.2967  0.1735  2.3758
 1155SOL     OW 3419   2.712   0.211   0.828  0.0852 -0.2963  0.4023
 1155SOL    HW1 3420   2.623   0.233   0.868 -0.2661 -0.4126 -0.2986
 1155SOL    HW2 3421   2.784   0.235   0.893 -0.4507 -0.1351  0.9520
 1156SOL     OW 3422   2.098   1.845   3.426 -0.2304  0.2265 -0.4093
 1156SOL    HW1 3423   2.021   1.905   3.446 -0.2719  0.0352  0.0186
 1156SOL    HW2 3424   2.111   1.781   3.501 -0.0492 -0.1603 -0.7639
 1157SOL     OW 3425   3.652   1.230   2.930 -0.3904  0.0294  0.4295
 1157SOL    HW1 3426   3.709   1.306   2.898  0.7833 -0.3152  1.6237
 1157SOL    HW2 3427   3.617   1.180   2.851 -0.2188  1.1044 -0.3530
 1158SOL     OW 3428   2.826   0.825   2.245  0.0625  0.2575 -0.0680
 1158SOL    HW1 3429   2.877   0.877   2.313 -1.6091  1.3430  0.4207
 1158SOL    HW2 3430   2.835   0.869   2.155  0.9116 -0.2134 -0.2138
 1159SOL     OW 3431   3.546   0.593   1.390  0.5804 -0.3880 -0.0418
 1159SOL    HW1 3432   3.532   0.688   1.364 -1.3301 -0.8402 -0.8659
 1159SOL    HW2 3433   3.531   0.583   1.489  1.0079  0.1983  0.0848
 1160SOL     OW 3434   0.010   0.546   2.213 -0.2358  0.4410 -0.3254
 1160SOL    HW1 3435   0.019   0.515   2.307  0.6694  1.4413 -0.0689
 1160SOL    HW2 3436   0.073   0.494   2.155  2.4648  2.7312  0.3574
 1161SOL     OW 3437   0.830   1.419   1.526  0.2896  0.0746 -0.2329
 1161SOL    HW1 3438   0.917   1.396   1.482  1.0174  1.4629  0.4185
 1161SOL    HW2 3439   0.836   1.511   1.564 -0.4230 -0.8807  2.4155
 1162SOL     OW 3440   0.953   0.646   2.589  0.8785 -0.0231  0.1327
 1162SOL    HW1 3441   0.991   0.708   2.658  1.8276 -0.4981  0.0573
 1162SOL    HW2 3442   1.025   0.623   2.523 -0.3832  1.6484 -1.9384
 1163SOL     OW 3443   3.450   1.425   2.964 -0.3626 -0.5084  0.2779
 1163SOL    HW1 3444   3.433   1.461   2.872 -1.2347  1.6075  1.1914
 1163SOL    HW2 3445   3.543   1.386   2.969 -0.4239 -0.9472 -1.5453
 1164SOL     OW 3446   1.144   0.312   3.014 -0.0103 -0.1932  0.5016
 1164SOL    HW1 3447   1.124   0.410   3.007 -0.2185 -0.2336  0.5416
 1164SOL    HW2 3448   1.123   0.280   3.106  0.2951 -0.2226  0.5626
 1165SOL     OW 3449   3.530   2.494   2.429  0.2122 -0.3567 -0.2336
 1165SOL    HW1 3450   3.473   2.575   2.425 -0.4689 -0.8615 -1.2032
 1165SOL    HW2 3451   3.483   2.421   2.479  0.4891 -0.3965 -0.0311
 1166SOL     OW 3452   3.258   0.841   2.337 -0.1382  0.5315  0.1612
 1166SOL    HW1 3453   3.242   0.871   2.243 -0.5527 -2.7953 -0.9697
 1166SOL    HW2 3454   3.172   0.806   2.376  0.6281 -0.9802  0.5834
 1167SOL     OW 3455   2.866   2.373   3.286 -0.3266  0.2050  0.0742
 1167SOL    HW1 3456   2.899   2.464   3.313 -2.1904  0.1201  3.0521
 1167SOL    HW2 3457   2.842   2.375   3.189  0.2588  2.6981 -0.1067
 1168SOL     OW 3458   3.390   0.698   1.022  0.1104 -0.2134  0.2054
 1168SOL    HW1 3459   3.321   0.706   1.094 -1.6964  0.8138 -1.5813
 1168SOL    HW2 3460   3.476   0.737   1.056 -1.0206  1.4056  1.4070
 1169SOL     OW 3461   2.009   1.141   3.078  0.3888  0.5487 -0.0562
 1169SOL    HW1 3462   1.987   1.090   3.162  0.7831 -0.0234 -0.2934
 1169SOL    HW2 3463   2.023   1.237   3.101 -0.2385  0.5386  0.4227
 1170SOL     OW 3464   2.836   1.496   2.514  1.0375  0.2193  0.1478
 1170SOL    HW1 3465   2.897   1.444   2.573  1.7585 -0.6043 -1.2703
 1170SOL    HW2 3466   2.806   1.579   2.561  0.1967 -1.2280  2.2903
 1171SOL     OW 3467   2.699   0.620   2.653 -0.2908  0.8656 -0.1469
 1171SOL    HW1 3468   2.694   0.675   2.569 -2.0574 -1.5380 -1.7553
 1171SOL    HW2 3469   2.773   0.553   2.646  0.2702  1.3607  0.7471
 1172SOL     OW 3470   2.682   0.967   3.244  0.2531 -0.2910  0.5691
 1172SOL    HW1 3471   2.751   0.908   3.286  1.0047  1.3607  1.7778
 1172SOL    HW2 3472   2.593   0.920   3.246  0.8768 -1.5191  1.1344
 1173SOL     OW 3473   2.617   2.041   3.064 -0.4151  0.8278  0.3178
 1173SOL    HW1 3474   2.618   1.947   3.030 -2.6256  0.4978  1.0156
 1173SOL    HW2 3475   2.679   2.048   3.143  2.1490  0.7943 -1.5607
 1174SOL     OW 3476   3.264   1.270   2.498  0.3353 -0.6418 -0.3519
 1174SOL    HW1 3477   3.210   1.265   2.414  2.6561  0.3762 -1.9938
 1174SOL    HW2 3478   3.318   1.186   2.508  1.9153  0.2491 -1.2312
 1175SOL     OW 3479   3.413   0.208   2.785 -0.2116  0.0009  0.1460
 1175SOL    HW1 3480   3.420   0.137   2.714  1.4043  0.8211 -0.5812
 1175SOL    HW2 3481   3.481   0.191   2.856 -2.9974 -1.8443  2.5796
 1176SOL     OW 3482   3.261   1.959   1.382 -0.0123  0.1019  0.5347
 1176SOL    HW1 3483   3.293   1.884   1.325  0.5412  0.7440 -0.0309
 1176SOL    HW2 3484   3.311   1.959   1.468  2.4178  1.7295 -0.7626
 1177SOL     OW 3485   3.025   1.179   1.336  0.0657 -0.3186  0.3009
 1177SOL    HW1 3486   2.972   1.095   1.343  0.6574 -0.6220  1.2292
 1177SOL    HW2 3487   2.967   1.257   1.362  0.0038 -0.6236  1.0908
 1178SOL     OW 3488   2.106   0.370   1.107 -0.0422  0.3976  0.1222
 1178SOL    HW1 3489   2.022   0.423   1.107  0.0864  0.6069 -0.2034
 1178SOL    HW2 3490   2.111   0.315   1.190  0.5722  2.0660  1.2419
 1179SOL     OW 3491   2.470   3.776   2.388 -0.0233  0.0952  1.0305
 1179SOL    HW1 3492   2.461   3.834   2.469  0.6485  0.7322  0.6646
 1179SOL    HW2 3493   2.532   3.820   2.323 -2.3031  0.7201 -0.8423
 1180SOL     OW 3494   3.468   0.982   3.706 -0.3413 -0.3953  0.2555
 1180SOL    HW1 3495   3.474   1.076   3.739 -1.8631 -0.5118  0.9740
 1180SOL    HW2 3496   3.555   0.935   3.722  0.5976  1.0053 -0.5576
 1181SOL     OW 3497   2.149   1.026   0.129 -0.1883  0.6839  0.3646
 1181SOL    HW1 3498   2.135   0.927   0.120  2.0077  0.3650 -0.0636
 1181SOL    HW2 3499   2.141   1.070   0.040  0.4438  0.6252  0.2690
 1182SOL     OW 3500   2.759   1.216   2.385 -0.5416 -0.1104  0.2308
 1182SOL    HW1 3501   2.801   1.306   2.385 -0.0620 -0.2237 -2.7954
 1182SOL    HW2 3502   2.683   1.214   2.449  0.5140  1.8574  1.6422
 1183SOL     OW 3503   3.000   0.544   2.726 -0.2966 -0.3682 -0.3734
 1183SOL    HW1 3504   3.098   0.552   2.709 -0.4306  0.5088 -0.8104
 1183SOL    HW2 3505   2.976   0.448   2.744  1.1882 -0.1687  3.3776
 1184SOL     OW 3506   0.375   2.471   2.794  0.2898 -0.4269  0.2347
 1184SOL    HW1 3507   0.346   2.483   2.699 -0.5202 -0.9163  0.4130
 1184SOL    HW2 3508   0.454   2.410   2.797  0.2579 -0.4886 -0.1141
 1185SOL     OW 3509   3.461   0.258   2.087 -0.6047  0.3281  0.5679
 1185SOL    HW1 3510   3.413   0.211   2.012 -2.2506  0.1617  1.6862
 1185SOL    HW2 3511   3.402   0.264   2.166  1.1605  0.3641  1.9529
 1186SOL     OW 3512   2.290   0.144  -0.013  0.2810 -0.1757 -0.2816
 1186SOL    HW1 3513   2.358   0.085  -0.056 -0.2475 -0.0923 -1.2617
 1186SOL    HW2 3514   2.311   0.154   0.084  1.6906 -0.1207 -0.5711
 1187SOL     OW 3515   3.232   1.678   1.751  0.3178  0.0519  0.9137
 1187SOL    HW1 3516   3.314   1.714   1.706  0.7265 -0.5605  1.1565
 1187SOL    HW2 3517   3.240   1.579   1.761 -0.3611  0.0136  1.1398
 1188SOL     OW 3518   3.082   0.737   3.206 -0.0288 -0.1242  0.3966
 1188SOL    HW1 3519   3.023   0.732   3.125 -0.8170 -1.1621  1.0239
 1188SOL    HW2 3520   3.096   0.646   3.244  2.6662 -0.0565 -0.1896
 1189SOL     OW 3521   2.739   3.364   3.339  0.5791  0.4818  0.0281
 1189SOL    HW1 3522   2.681   3.375   3.420  0.6171 -0.3401  0.1769
 1189SOL    HW2 3523   2.829   3.404   3.357  0.1884  1.4196 -0.0659
 1190SOL     OW 3524   1.523   2.457   0.702  0.0462 -0.4527  0.2363
 1190SOL    HW1 3525   1.513   2.434   0.605 -0.9469 -0.0935  0.2419
 1190SOL    HW2 3526   1.434   2.481   0.740  0.9216  3.4017  0.2379
 1191SOL     OW 3527   3.708   3.567   1.250 -0.2085 -0.2140  0.1344
 1191SOL    HW1 3528   3.614   3.598   1.236  0.3271  1.2515 -0.4319
 1191SOL    HW2 3529   3.708   3.485   1.308 -1.7234  0.9601  1.9211
 1192SOL     OW 3530   2.100   1.129   2.270  0.0898 -0.0067 -0.1247
 1192SOL    HW1 3531   2.165   1.145   2.196 -0.8115 -0.1746 -0.9697
 1192SOL    HW2 3532   2.123   1.044   2.317  1.0654  0.4423  0.2439
 1193SOL     OW 3533   0.190   1.663   3.579  0.0101 -0.8677  0.3985
 1193SOL    HW1 3534   0.260   1.615   3.526 -1.3897 -2.7055  0.1042
 1193SOL    HW2 3535   0.202   1.644   3.676  0.7842  0.0467  0.4931
 1194SOL     OW 3536   3.281   1.721   2.745 -0.3531 -0.0204  0.1895
 1194SOL    HW1 3537   3.204   1.755   2.691 -0.6938  0.5473  1.0223
 1194SOL    HW2 3538   3.286   1.770   2.831 -0.9133 -2.1140  1.4814
 1195SOL     OW 3539   1.846   3.831   2.175  0.3262  0.1521 -0.6190
 1195SOL    HW1 3540   1.808   3.742   2.200 -3.3728  2.0756  1.3807
 1195SOL    HW2 3541   1.920   3.855   2.239 -1.2577  0.0604  1.3420
 1196SOL     OW 3542   2.382   0.903   0.773  0.8863 -0.2465  0.2020
 1196SOL    HW1 3543   2.332   0.898   0.860  1.0191  1.8091  0.4467
 1196SOL    HW2 3544   2.322   0.943   0.703  1.0698 -1.0645 -0.4349
 1197SOL     OW 3545   0.932   0.461   1.959 -0.5963  0.1770  0.0545
 1197SOL    HW1 3546   0.929   0.539   1.897  0.1382  0.9016  0.8984
 1197SOL    HW2 3547   0.961   0.492   2.050  0.8227 -1.2490  0.1338
 1198SOL     OW 3548   2.195   3.791   3.286  0.2878  0.0909 -0.5566
 1198SOL    HW1 3549   2.188   3.774   3.188 -0.1850  2.0872 -0.9094
 1198SOL    HW2 3550   2.117   3.845   3.316 -0.6732 -2.1904  1.3706
 1199SOL     OW 3551   1.900   3.348   2.210  0.2864  0.5230  0.1651
 1199SOL    HW1 3552   1.974   3.324   2.274  0.5256 -0.1303 -0.3534
 1199SOL    HW2 3553   1.825   3.283   2.219  0.0361  0.8169  0.2384
 1200SOL     OW 3554   2.786   2.742   3.206  1.0576 -0.7493 -0.2986
 1200SOL    HW1 3555   2.784   2.808   3.131 -0.9190 -0.1633  0.2120
 1200SOL    HW2 3556   2.695   2.703   3.220  2.0545 -3.3036 -0.2806
 1201SOL     OW 3557   1.605   3.772   3.622 -0.5122 -0.0941  0.5324
 1201SOL    HW1 3558   1.572   3.815   3.538 -0.2103 -1.1622 -0.1473
 1201SOL    HW2 3559   1.534   3.714   3.661 -0.5070  0.0721  0.7964
 1202SOL     OW 3560   3.067   0.777   2.510  0.2750  0.1383  0.0977
 1202SOL    HW1 3561   2.994   0.840   2.482 -1.0966 -0.9703  1.0512
 1202SOL    HW2 3562   3.114   0.813   2.590 -1.2045 -0.4803  1.2920
 1203SOL     OW 3563   2.352   1.616   1.467  0.0245  0.3545  0.6765
 1203SOL    HW1 3564   2.382   1.650   1.557 -1.6962  1.3162  0.9304
 1203SOL    HW2 3565   2.364   1.687   1.399  0.9213 -0.2301  0.2048
 1204SOL     OW 3566   1.988   0.563   3.664 -0.3594 -0.3150 -0.2921
 1204SOL    HW1 3567   1.976   0.478   3.613  0.1232 -0.7946  0.3771
 1204SOL    HW2 3568   2.041   0.545   3.748  1.5548  0.9906 -1.1392
 1205SOL     OW 3569   2.168   1.415   3.186  0.4078 -0.2244 -0.8096
 1205SOL    HW1 3570   2.153   1.509   3.156  0.0777 -0.5987 -1.8696
 1205SOL    HW2 3571   2.219   1.415   3.272 -1.2728  0.9645  0.2490
 1206SOL     OW 3572   2.914   1.309   2.139 -0.5808  0.2499 -0.0490
 1206SOL    HW1 3573   2.849   1.375   2.101 -0.6553 -0.2236 -0.7568
 1206SOL    HW2 3574   2.867   1.252   2.207 -0.4136  1.1871  0.8770
 1207SOL     OW 3575   0.304   1.397   2.500 -0.4503  0.2070  0.0246
 1207SOL    HW1 3576   0.240   1.336   2.547 -0.1639  0.6890  1.0656
 1207SOL    HW2 3577   0.259   1.485   2.481 -0.3072  0.3108  0.1609
 1208SOL     OW 3578   2.023   0.352   2.999 -0.4482  0.3713  0.1862
 1208SOL    HW1 3579   2.067   0.262   2.992  0.0881  0.6607 -0.2503
 1208SOL    HW2 3580   1.924   0.341   2.998 -0.4761 -0.4714  3.2618
 1209SOL     OW 3581   3.783   1.081   2.180  0.1890  0.5793 -0.2392
 1209SOL    HW1 3582   3.818   1.085   2.273  2.4148  1.0128 -1.0152
 1209SOL    HW2 3583   3.733   0.996   2.166 -0.6665  0.7628  1.4815
 1210SOL     OW 3584   3.548   1.785   2.340  0.4705 -0.6118  0.5527
 1210SOL    HW1 3585   3.454   1.754   2.322  0.3816  1.2805 -3.2309
 1210SOL    HW2 3586   3.612   1.714   2.310  0.2201 -0.2406 -0.9432
 1211SOL     OW 3587   2.462   1.850   3.805 -0.1593 -0.1710 -0.1125
 1211SOL    HW1 3588   2.541   1.796   3.776  0.9266  0.8224  0.8826
 1211SOL    HW2 3589   2.446   1.924   3.740 -1.0807 -1.1205 -0.9900
 1212SOL     OW 3590   0.193   2.893   3.693  0.0652  0.4244 -0.7370
 1212SOL    HW1 3591   0.141   2.968   3.734 -1.8667 -2.4637  2.7590
 1212SOL    HW2 3592   0.262   2.861   3.757 -0.6906 -2.1440 -1.0961
 1213SOL     OW 3593   2.459   0.675   3.759  0.1560 -0.3501  0.2692
 1213SOL    HW1 3594   2.489   0.679   3.663  1.6198 -0.5322  0.6812
 1213SOL    HW2 3595   2.403   0.593   3.772  0.3633 -0.6026 -0.3368
 1214SOL     OW 3596   3.103   0.382   0.881 -0.1571  0.3497 -0.3677
 1214SOL    HW1 3597   3.019   0.434   0.863 -0.0163  0.6569 -0.1369
 1214SOL    HW2 3598   3.118   0.376   0.979 -0.8599 -1.2309 -0.3251
 1215SOL     OW 3599   2.105   0.218   1.363  0.2566 -0.3473  0.2163
 1215SOL    HW1 3600   2.101   0.119   1.375 -0.6200 -0.3600 -0.1479
 1215SOL    HW2 3601   2.075   0.264   1.446  0.7108 -0.3817  0.4026
 1216SOL     OW 3602   3.202   2.564   2.647  0.0457  0.5494 -0.4286
 1216SOL    HW1 3603   3.222   2.475   2.606  0.0522  0.5902 -0.5133
 1216SOL    HW2 3604   3.104   2.582   2.643 -0.1498 -0.0892  0.8693
 1217SOL     OW 3605   2.380   1.336   2.240 -0.0280 -0.5519 -0.0831
 1217SOL    HW1 3606   2.453   1.357   2.305 -0.1425  0.9550 -0.3870
 1217SOL    HW2 3607   2.419   1.333   2.147 -0.3021  0.0394 -0.2217
 1218SOL     OW 3608   1.475   0.587   2.731  0.0796  0.1065 -0.4406
 1218SOL    HW1 3609   1.505   0.622   2.820  2.5414 -0.3372 -1.0030
 1218SOL    HW2 3610   1.482   0.487   2.731 -1.8012 -0.0548 -0.5397
 1219SOL     OW 3611   2.291   0.526   0.382 -0.0010 -0.0688 -0.6821
 1219SOL    HW1 3612   2.232   0.574   0.447 -0.2407  0.8539 -1.5556
 1219SOL    HW2 3613   2.234   0.482   0.312  0.2311 -1.4342 -0.0525
 1220SOL     OW 3614   3.059   2.843   2.481 -0.1753  0.5951  0.0179
 1220SOL    HW1 3615   3.038   2.791   2.564  1.1128  0.0537  0.0265
 1220SOL    HW2 3616   3.047   2.784   2.401  1.1429  0.2918  0.0185
 1221SOL     OW 3617   2.795   0.383   2.495  0.5189  0.4994 -0.1115
 1221SOL    HW1 3618   2.696   0.392   2.504  0.3394 -1.5012  0.2239
 1221SOL    HW2 3619   2.825   0.296   2.535  2.5843  1.6113  0.9391
 1222SOL     OW 3620   2.830   1.481   3.600  0.5359  0.7348  0.3710
 1222SOL    HW1 3621   2.797   1.442   3.514 -0.2500 -1.3141  1.5296
 1222SOL    HW2 3622   2.914   1.434   3.628  1.6461  2.4080  0.0395
 1223SOL     OW 3623   2.941   2.615   2.667 -0.1413 -0.2005 -0.0716
 1223SOL    HW1 3624   2.860   2.559   2.657 -0.7729  0.5006  0.8795
 1223SOL    HW2 3625   2.920   2.694   2.725  0.7474  0.9671 -1.2886
 1224SOL     OW 3626   0.324   1.521   2.924 -0.1201 -0.3024 -0.6919
 1224SOL    HW1 3627   0.287   1.443   2.874 -0.8014  0.6345 -1.6927
 1224SOL    HW2 3628   0.309   1.508   3.022  2.2432 -2.7027 -0.5454
 1225SOL     OW 3629   2.620   2.521   2.844  0.1124 -0.5612  0.0695
 1225SOL    HW1 3630   2.575   2.572   2.917  1.0879 -0.5836  0.7052
 1225SOL    HW2 3631   2.576   2.431   2.834 -0.6229 -0.2037 -0.0227
 1226SOL     OW 3632   2.655   1.400   3.330 -0.2927  0.6463 -0.3602
 1226SOL    HW1 3633   2.615   1.490   3.314 -0.1833  0.6494 -0.6141
 1226SOL    HW2 3634   2.704   1.370   3.249  1.2956  1.1888  0.3523
 1227SOL     OW 3635   0.380   0.169   2.851  0.1051 -0.0924 -0.2947
 1227SOL    HW1 3636   0.428   0.082   2.866 -0.1003 -0.3366 -1.0067
 1227SOL    HW2 3637   0.326   0.191   2.931  0.2239 -0.5836 -0.0720
 1228SOL     OW 3638   2.630   1.116   2.996  0.4267 -0.4993  0.0015
 1228SOL    HW1 3639   2.642   1.055   3.074 -0.7787 -1.3458 -0.4373
 1228SOL    HW2 3640   2.663   1.072   2.913  0.5910 -0.0968 -0.1500
 1229SOL     OW 3641   0.118   0.559   2.585  0.0234  0.0479  0.3815
 1229SOL    HW1 3642   0.168   0.624   2.528 -1.8591  1.0661 -0.1922
 1229SOL    HW2 3643   0.098   0.477   2.532  0.4620 -0.0671  0.3907
 1230SOL     OW 3644   2.513   1.580   0.535  0.1085  0.2086  0.1874
 1230SOL    HW1 3645   2.564   1.644   0.478 -0.5513  0.0328 -0.6240
 1230SOL    HW2 3646   2.510   1.613   0.629 -0.0513  1.2609 -0.1802
 1231SOL     OW 3647   3.246   0.867   2.748 -0.6008  0.7521 -0.2406
 1231SOL    HW1 3648   3.311   0.890   2.675 -1.4898 -0.6366 -1.5208
 1231SOL    HW2 3649   3.297   0.848   2.832  0.4649  2.0824 -0.5405
 1232SOL     OW 3650   3.412   2.125   0.028  0.1029  0.0426  0.3136
 1232SOL    HW1 3651   3.350   2.059   0.071 -0.4894  0.2117 -0.2533
 1232SOL    HW2 3652   3.506   2.106   0.055 -0.1116 -0.7616  0.5066
 1233SOL     OW 3653   2.692   0.616   2.933 -0.0854  0.1686  0.2961
 1233SOL    HW1 3654   2.744   0.699   2.955 -1.0478  0.9002 -0.1153
 1233SOL    HW2 3655   2.678   0.610   2.834 -0.0246 -0.4901  0.3209
 1234SOL     OW 3656   3.047   1.222   3.052  0.2558 -0.4254  0.8183
 1234SOL    HW1 3657   3.073   1.214   3.148 -0.8241  0.6172  1.2184
 1234SOL    HW2 3658   3.090   1.303   3.012  0.8370 -0.9492  0.3626
 1235SOL     OW 3659   2.667   0.386   3.696 -0.5417 -0.2666 -0.3813
 1235SOL    HW1 3660   2.676   0.318   3.623 -1.4599 -1.1809  0.3248
 1235SOL    HW2 3661   2.576   0.428   3.692 -0.5528 -0.2251  0.1414
 1236SOL     OW 3662   2.445   1.512   1.842  0.3459  0.7276 -0.2836
 1236SOL    HW1 3663   2.507   1.559   1.778  0.7007 -1.3425 -1.5329
 1236SOL    HW2 3664   2.353   1.552   1.834 -0.4238 -1.3433 -4.4325
 1237SOL     OW 3665   0.833   1.663   2.912  0.6441 -0.0487 -0.1388
 1237SOL    HW1 3666   0.737   1.655   2.884  0.5749  0.9876 -0.2359
 1237SOL    HW2 3667   0.891   1.623   2.840  0.2507 -2.0897  0.6015
 1238SOL     OW 3668   0.400   2.834   3.058  0.2061 -0.0810 -0.1547
 1238SOL    HW1 3669   0.413   2.751   3.112  2.6300  0.2272 -0.1845
 1238SOL    HW2 3670   0.374   2.809   2.965  0.0437 -0.7653  0.0668
 1239SOL     OW 3671   1.903   1.584   2.783  0.1435 -0.1611 -0.1598
 1239SOL    HW1 3672   1.982   1.546   2.735  0.8992  0.3805  0.6406
 1239SOL    HW2 3673   1.821   1.571   2.727  0.6870 -1.2994 -0.7162
 1240SOL     OW 3674   3.041   0.036   0.457  0.0041 -0.0071 -0.1160
 1240SOL    HW1 3675   2.979  -0.040   0.440 -1.0821  1.0700 -1.1103
 1240SOL    HW2 3676   3.133   0.012   0.424 -0.4480 -0.6801 -0.9003
 1241SOL     OW 3677   0.114   0.722   2.786  0.2778 -0.3191 -0.1222
 1241SOL    HW1 3678   0.060   0.803   2.765 -0.9562 -1.2328 -0.5998
 1241SOL    HW2 3679   0.104   0.655   2.713  0.4800 -1.2864  0.7056
 1242SOL     OW 3680   3.321   2.325   2.551 -0.2174  0.6663 -0.0186
 1242SOL    HW1 3681   3.345   2.251   2.614  0.8523  1.6164  0.7310
 1242SOL    HW2 3682   3.259   2.290   2.480 -1.2919 -0.4667  1.4237
 1243SOL     OW 3683   2.176   3.330   3.349 -0.0668 -0.4333 -0.2686
 1243SOL    HW1 3684   2.153   3.422   3.382  3.8791  1.2077 -1.4594
 1243SOL    HW2 3685   2.252   3.293   3.402  0.0946 -1.9038 -1.4580
 1244SOL     OW 3686   2.945   0.774   2.946  0.4242  0.1538 -0.3225
 1244SOL    HW1 3687   2.964   0.871   2.931  0.1321  0.0785 -1.2946
 1244SOL    HW2 3688   2.982   0.721   2.869 -0.9115 -0.3191 -0.6686
 1245SOL     OW 3689   2.329   1.310   3.588  0.2079 -0.0299 -0.3505
 1245SOL    HW1 3690   2.308   1.393   3.537  0.1036 -0.0962 -0.4145
 1245SOL    HW2 3691   2.393   1.254   3.536 -2.5147 -1.7879 -2.0721
 1246SOL     OW 3692   2.533   1.336   2.017 -0.0263  0.3164 -0.2405
 1246SOL    HW1 3693   2.560   1.258   1.959 -0.6556  1.1101 -1.6584
 1246SOL    HW2 3694   2.500   1.410   1.959 -2.1135  0.6100  1.2229
 1247SOL     OW 3695   0.176   2.095   2.654 -0.4060 -0.3038  0.4617
 1247SOL    HW1 3696   0.199   2.026   2.723 -0.5110  0.1773  0.9896
 1247SOL    HW2 3697   0.231   2.177   2.670  0.5358 -0.6543 -0.8463
 1248SOL     OW 3698   3.565   2.997   3.034  0.1049  0.1048  0.1491
 1248SOL    HW1 3699   3.655   3.020   2.997  0.6113 -1.3865  0.4033
 1248SOL    HW2 3700   3.563   2.901   3.060 -0.9109  0.5723  2.0215
 1249SOL     OW 3701   1.823   3.680   3.324  0.4107  0.3506  0.6015
 1249SOL    HW1 3702   1.814   3.687   3.423  0.4756  0.8296  0.5795
 1249SOL    HW2 3703   1.842   3.771   3.286 -0.9950  0.4406  0.0128
 1250SOL     OW 3704   3.687   0.735   1.912 -0.4063 -0.0765  0.2824
 1250SOL    HW1 3705   3.776   0.747   1.870 -1.8597  1.1442 -2.7166
 1250SOL    HW2 3706   3.681   0.643   1.952  1.5366 -0.8963 -1.1584
 1251SOL     OW 3707   3.202   1.173   3.293  0.0611  0.3154 -0.1265
 1251SOL    HW1 3708   3.289   1.220   3.281 -0.8403  2.5103  1.3334
 1251SOL    HW2 3709   3.216   1.074   3.284  2.6027  0.6309 -0.3035
 1252SOL     OW 3710   0.002   0.639   3.059  0.1532 -0.3337 -0.1833
 1252SOL    HW1 3711   0.040   0.661   2.969  0.5885 -2.1269 -0.4740
 1252SOL    HW2 3712   0.058   0.682   3.130 -0.9065  2.1370 -0.7441
 1253SOL     OW 3713   3.482   0.699   2.375 -0.4328  0.2854 -0.2527
 1253SOL    HW1 3714   3.455   0.608   2.406 -1.4256  1.1583  1.6281
 1253SOL    HW2 3715   3.402   0.759   2.375  0.4469  1.4899 -0.1818
 1254SOL     OW 3716   1.262   0.848   3.519  0.3378 -0.2937  0.4102
 1254SOL    HW1 3717   1.353   0.889   3.509  0.3645 -0.1707  1.1468
 1254SOL    HW2 3718   1.243   0.832   3.615 -0.2751 -0.6642  0.2300
 1255SOL     OW 3719   2.312   1.700   3.040  0.1607 -0.7835  0.6561
 1255SOL    HW1 3720   2.341   1.676   2.947 -0.4100 -0.1934  0.3204
 1255SOL    HW2 3721   2.350   1.789   3.064 -0.9232 -0.2425  0.4131
 1256SOL     OW 3722   3.164   1.464   2.977 -0.3666 -0.5174 -0.1529
 1256SOL    HW1 3723   3.149   1.535   3.046  0.0982 -0.5494 -0.0214
 1256SOL    HW2 3724   3.261   1.442   2.971  0.0228  1.5060 -2.8026
 1257SOL     OW 3725   2.537   1.172   3.442  0.1911  0.1068  0.5148
 1257SOL    HW1 3726   2.560   1.088   3.393 -2.6209 -1.5594  1.7858
 1257SOL    HW2 3727   2.590   1.248   3.404  2.8897 -2.1742 -0.6686
 1258SOL     OW 3728   2.647   0.055   2.232  0.4289  0.2712  0.3858
 1258SOL    HW1 3729   2.743   0.038   2.208 -0.4586 -2.9975 -1.5722
 1258SOL    HW2 3730   2.594   0.068   2.148 -0.9139  1.8041  1.4258
 1259SOL     OW 3731   3.794   0.103   0.080 -0.2063  0.6790  0.4025
 1259SOL    HW1 3732   3.695   0.090   0.074 -0.4620  2.0140  1.3063
 1259SOL    HW2 3733   3.821   0.184   0.028  0.6504 -0.5232 -1.1006
 1260SOL     OW 3734   2.429   0.985   2.192  0.5223  0.0918  0.6235
 1260SOL    HW1 3735   2.453   1.076   2.158 -0.0481  0.1258  0.2921
 1260SOL    HW2 3736   2.440   0.982   2.291  1.9400  0.0826  0.4753
 1261SOL     OW 3737   2.219   1.567   0.601 -0.2566 -0.1979  0.3488
 1261SOL    HW1 3738   2.306   1.608   0.574 -0.0025  0.2925  1.8298
 1261SOL    HW2 3739   2.222   1.469   0.585  0.5601 -0.1790  0.3509
 1262SOL     OW 3740   1.360   0.514   0.203 -0.0090 -0.3583 -0.4303
 1262SOL    HW1 3741   1.397   0.481   0.290  1.2172  0.3002 -0.6770
 1262SOL    HW2 3742   1.269   0.554   0.219  1.2045  2.0915  1.0978
 1263SOL     OW 3743   2.180   0.723   1.413 -0.2596 -0.1582 -0.0949
 1263SOL    HW1 3744   2.133   0.692   1.496  0.4605 -0.3859  0.2373
 1263SOL    HW2 3745   2.140   0.809   1.382  1.7123  1.9107  2.5592
 1264SOL     OW 3746   3.735   0.410   3.147 -0.2933 -0.0367  0.0821
 1264SOL    HW1 3747   3.708   0.386   3.054 -0.3054 -0.8349  0.2815
 1264SOL    HW2 3748   3.780   0.499   3.147 -0.5673  0.1061 -0.6418
 1265SOL     OW 3749   1.524   1.617   2.717  0.2640  0.1546 -0.1146
 1265SOL    HW1 3750   1.434   1.577   2.735  0.9182 -0.9412  0.8280
 1265SOL    HW2 3751   1.558   1.661   2.800  1.1325 -0.5285 -0.0983
 1266SOL     OW 3752   3.403   1.477   2.699 -0.1131 -0.3395  0.0899
 1266SOL    HW1 3753   3.351   1.426   2.630 -2.2481 -0.5097  1.7316
 1266SOL    HW2 3754   3.370   1.572   2.701  2.0465  0.5186 -1.1424
 1267SOL     OW 3755   0.221   1.599   0.002  0.3911  0.0341  0.1018
 1267SOL    HW1 3756   0.160   1.520   0.007  0.4343 -0.1191 -1.4685
 1267SOL    HW2 3757   0.228   1.641   0.093 -0.4676 -1.1220  0.7311
 1268SOL     OW 3758   0.548   3.806   2.849  0.1784  0.4134 -0.0258
 1268SOL    HW1 3759   0.622   3.862   2.812  0.2984  0.0161 -0.4026
 1268SOL    HW2 3760   0.572   3.777   2.942  1.4063 -1.2955 -0.8178
 1269SOL     OW 3761   2.864   0.760   3.402  0.2619 -0.7838 -0.6091
 1269SOL    HW1 3762   2.888   0.762   3.499  1.8551  0.4449 -0.9739
 1269SOL    HW2 3763   2.943   0.789   3.348 -0.4300 -1.9588 -2.3246
 1270SOL     OW 3764   0.830   0.844   3.013 -0.5973 -0.4440  0.1394
 1270SOL    HW1 3765   0.801   0.784   3.088 -1.6096 -1.0340 -0.6991
 1270SOL    HW2 3766   0.830   0.793   2.927 -0.7068  0.5470 -0.4661
 1271SOL     OW 3767   2.604   1.830   3.479  0.1030 -0.0278  0.7555
 1271SOL    HW1 3768   2.605   1.730   3.486 -2.6894 -0.1906  0.1160
 1271SOL    HW2 3769   2.689   1.862   3.437  0.7456 -2.1901  0.3059
 1272SOL     OW 3770   1.062   0.133   3.290 -0.0502 -0.4486 -0.2374
 1272SOL    HW1 3771   1.047   0.219   3.339 -2.7075 -0.3428 -1.0960
 1272SOL    HW2 3772   1.112   0.070   3.349 -1.0233  0.5063  1.7150
 1273SOL     OW 3773   1.647   0.779   1.844 -0.1112 -0.3736 -0.8554
 1273SOL    HW1 3774   1.679   0.772   1.938 -0.4116  0.3585 -0.6945
 1273SOL    HW2 3775   1.662   0.692   1.797  2.6315  0.0816 -0.9667
 1274SOL     OW 3776   2.729   1.794   0.709  0.1641 -0.4749  0.4499
 1274SOL    HW1 3777   2.693   1.707   0.745  0.1740 -0.2569  0.9931
 1274SOL    HW2 3778   2.818   1.777   0.666 -0.0554 -0.8170  0.1191
 1275SOL     OW 3779   0.870   3.488   2.847 -0.2495 -0.4252  0.5546
 1275SOL    HW1 3780   0.805   3.417   2.873 -0.1963 -0.3317  0.9448
 1275SOL    HW2 3781   0.962   3.462   2.875  0.2026 -1.4030 -1.5709
 1276SOL     OW 3782   0.802   0.119   2.908  0.8520 -0.1571 -0.0787
 1276SOL    HW1 3783   0.846   0.032   2.933  1.1406 -0.1625 -0.5839
 1276SOL    HW2 3784   0.863   0.170   2.848 -0.1225 -0.4660 -1.3617
 1277SOL     OW 3785   1.941   1.090   0.864  0.2236  0.0312 -0.6220
 1277SOL    HW1 3786   2.010   1.155   0.833  1.4396 -0.4522  0.8881
 1277SOL    HW2 3787   1.856   1.103   0.813  1.6282  0.1467 -3.0979
 1278SOL     OW 3788   2.326   1.523   3.408 -0.2034 -0.6342  0.4494
 1278SOL    HW1 3789   2.407   1.552   3.358  0.1874 -2.4219 -0.0344
 1278SOL    HW2 3790   2.302   1.592   3.475 -0.5862  1.7564 -1.9693
 1279SOL     OW 3791   3.212   0.720   1.262  0.3858  0.2018  0.3895
 1279SOL    HW1 3792   3.126   0.670   1.255  0.4054 -0.0186  1.4784
 1279SOL    HW2 3793   3.222   0.756   1.355  0.8226  1.4253 -0.1108
 1280SOL     OW 3794   2.291   3.597   1.252  0.0483 -0.7319  0.1462
 1280SOL    HW1 3795   2.381   3.554   1.261 -0.4201 -1.3402  3.3940
 1280SOL    HW2 3796   2.219   3.529   1.268 -0.8440  0.3276  0.8619
 1281SOL     OW 3797   3.850   0.372   2.442  0.1433  0.4089 -0.0718
 1281SOL    HW1 3798   3.762   0.331   2.463 -0.7823  0.9592 -2.5459
 1281SOL    HW2 3799   3.898   0.316   2.374  1.1648  0.7428  0.3502
 1282SOL     OW 3800   2.641   1.208   0.199 -0.3676 -0.4893 -0.2079
 1282SOL    HW1 3801   2.557   1.166   0.163 -0.1017 -0.0907 -1.3572
 1282SOL    HW2 3802   2.621   1.253   0.286 -0.9491 -1.8487  0.3801
 1283SOL     OW 3803   3.364   2.280   1.753 -0.5811  0.3225 -0.3652
 1283SOL    HW1 3804   3.398   2.272   1.659 -0.6929 -0.4753 -0.3470
 1283SOL    HW2 3805   3.289   2.215   1.767  0.7720 -1.0673  0.8618
 1284SOL     OW 3806   2.897   1.570   0.238  0.1471  0.0269 -0.3198
 1284SOL    HW1 3807   2.861   1.663   0.230  1.7683  0.5487 -2.3886
 1284SOL    HW2 3808   2.873   1.533   0.328  0.4353  2.8871  1.0589
 1285SOL     OW 3809   3.246   0.084   3.195  0.6758  0.5417  0.2851
 1285SOL    HW1 3810   3.342   0.056   3.199  0.7483  0.8892  2.1881
 1285SOL    HW2 3811   3.236   0.174   3.238 -0.4567  0.6940 -0.2551
 1286SOL     OW 3812   2.198   0.911   2.399  0.2109  0.3963  0.7896
 1286SOL    HW1 3813   2.297   0.919   2.411  0.2606  0.3996  0.3850
 1286SOL    HW2 3814   2.174   0.817   2.377  0.1105  0.3696  1.0121
 1287SOL     OW 3815   0.927   2.031   0.301 -0.3818  0.4101  0.1856
 1287SOL    HW1 3816   1.013   2.081   0.307 -1.2082  1.8402  0.7134
 1287SOL    HW2 3817   0.899   2.002   0.393  0.5373 -1.9172 -0.1916
 1288SOL     OW 3818   0.983   0.267   2.764 -0.1724  0.2142  0.2559
 1288SOL    HW1 3819   1.046   0.236   2.693 -0.4570 -0.5510  0.3339
 1288SOL    HW2 3820   1.035   0.311   2.838  0.2716 -0.4347  0.3328
 1289SOL     OW 3821   3.112   2.013   2.858 -0.0368 -0.1880  0.1179
 1289SOL    HW1 3822   3.189   1.976   2.910 -0.9961 -1.1150  0.9056
 1289SOL    HW2 3823   3.090   2.105   2.892  0.8344  0.1800 -0.2638
 1290SOL     OW 3824   1.666   2.010   2.744 -0.2163  0.0136  0.6428
 1290SOL    HW1 3825   1.608   1.941   2.700 -1.8919 -0.0858  2.8059
 1290SOL    HW2 3826   1.634   2.101   2.719 -0.1088 -0.0235  0.3680
 1291SOL     OW 3827   2.487   3.436   2.830 -0.2077 -0.1020 -0.2817
 1291SOL    HW1 3828   2.580   3.434   2.795 -0.2611  1.2437 -0.5880
 1291SOL    HW2 3829   2.479   3.508   2.899 -1.5127  1.3801 -1.8678
 1292SOL     OW 3830   3.343   2.439   1.240  0.1690 -0.1842 -0.2643
 1292SOL    HW1 3831   3.396   2.499   1.179  2.7981 -1.4806  0.5862
 1292SOL    HW2 3832   3.294   2.495   1.306  0.5836  1.0949 -0.9938
 1293SOL     OW 3833   2.576   2.260   0.280 -0.0709  0.2927  0.1864
 1293SOL    HW1 3834   2.624   2.172   0.282  2.7438  1.6423  3.5024
 1293SOL    HW2 3835   2.479   2.246   0.300  0.5447 -1.9830  1.9541
 1294SOL     OW 3836   2.642   0.747   2.419  0.1905  0.4530  0.4029
 1294SOL    HW1 3837   2.687   0.781   2.336  0.4795  1.0890  0.8098
 1294SOL    HW2 3838   2.554   0.705   2.395  1.1431 -1.1340 -0.4498
 1295SOL     OW 3839   3.175   0.097   2.914  0.2892 -0.7297 -0.3399
 1295SOL    HW1 3840   3.198   0.087   3.011  0.4931 -1.6388 -0.4750
 1295SOL    HW2 3841   3.254   0.130   2.863  0.2397 -0.4443 -0.2348
 1296SOL     OW 3842   3.873   1.101   1.386 -0.3954 -0.0277  0.0199
 1296SOL    HW1 3843   3.827   1.162   1.450  0.1627 -0.1898  0.5827
 1296SOL    HW2 3844   3.805   1.046   1.337 -0.9835  1.7824 -1.2856
 1297SOL     OW 3845   1.673   1.047   3.695 -0.2572  0.4010 -0.1891
 1297SOL    HW1 3846   1.724   0.963   3.713 -0.3623  0.0937 -1.2771
 1297SOL    HW2 3847   1.736   1.117   3.662 -0.0091  1.0688  1.5652
 1298SOL     OW 3848   2.781   1.578   1.911  0.1143 -0.5119  0.4222
 1298SOL    HW1 3849   2.735   1.568   1.999 -0.3655  1.5584  0.4731
 1298SOL    HW2 3850   2.848   1.652   1.916 -0.1622 -0.1226 -1.0141
 1299SOL     OW 3851   3.029   1.077   1.008  0.2746  0.0189  0.5500
 1299SOL    HW1 3852   3.089   1.107   0.934  0.3301 -0.3930  0.4254
 1299SOL    HW2 3853   3.084   1.054   1.088  0.3102 -0.6479  0.3368
 1300SOL     OW 3854   2.492   1.651   0.801  0.1544  0.3671 -0.6117
 1300SOL    HW1 3855   2.475   1.556   0.829  0.1280  0.7982  0.9237
 1300SOL    HW2 3856   2.411   1.706   0.821 -0.6666  0.3788 -3.4263
 1301SOL     OW 3857   1.969   2.190   0.242  0.5714  0.6612  0.3028
 1301SOL    HW1 3858   1.931   2.264   0.298 -0.6487  1.5535 -1.5980
 1301SOL    HW2 3859   1.909   2.173   0.164  1.7931 -1.0886 -0.3179
 1302SOL     OW 3860   1.697   3.341   0.684 -0.1437 -0.5127  0.2930
 1302SOL    HW1 3861   1.609   3.307   0.652 -0.8807  0.3123  1.3604
 1302SOL    HW2 3862   1.726   3.289   0.764 -0.6847  0.5071  1.1871
 1303SOL     OW 3863   2.831   3.305   0.477 -0.0047 -0.5597 -0.3890
 1303SOL    HW1 3864   2.907   3.369   0.465 -0.7709  0.0035 -2.8961
 1303SOL    HW2 3865   2.810   3.296   0.574  1.4792  1.3904  0.1844
 1304SOL     OW 3866   3.527   2.338   3.726  0.3022 -0.4294 -0.4836
 1304SOL    HW1 3867   3.615   2.381   3.745 -1.5787  2.3230  3.2289
 1304SOL    HW2 3868   3.507   2.269   3.796 -1.1410  0.1538 -0.2762
 1305SOL     OW 3869   2.875   3.663   0.133 -0.0712 -0.3592 -0.5990
 1305SOL    HW1 3870   2.852   3.654   0.230 -0.3607  2.0377 -0.3704
 1305SOL    HW2 3871   2.792   3.652   0.078 -0.0739 -0.8143 -0.5054
 1306SOL     OW 3872   2.081   3.389   0.547 -0.3420  0.4948 -0.0231
 1306SOL    HW1 3873   1.999   3.443   0.526 -0.4179  0.0817 -0.8335
 1306SOL    HW2 3874   2.141   3.441   0.608 -1.2047  0.8007  0.5795
 1307SOL     OW 3875   3.274   3.288   3.666  0.0119  0.1367 -0.2154
 1307SOL    HW1 3876   3.306   3.265   3.575 -0.0641 -0.1128 -0.1793
 1307SOL    HW2 3877   3.276   3.206   3.724 -1.7067 -0.1531 -0.5023
 1308SOL     OW 3878   2.846   3.656   0.416 -0.6832 -0.8988  0.0252
 1308SOL    HW1 3879   2.918   3.591   0.439  0.0809  0.5998  2.1739
 1308SOL    HW2 3880   2.795   3.680   0.499 -0.9679  1.1988 -0.6909
 1309SOL     OW 3881   2.525   2.878   2.208 -0.3517 -0.1687  0.0696
 1309SOL    HW1 3882   2.447   2.938   2.225 -0.7840 -0.9939  1.0620
 1309SOL    HW2 3883   2.605   2.913   2.256 -0.8371 -0.8718  1.4405
 1310SOL     OW 3884   2.092   3.769   1.373 -0.2808  0.0588  0.2333
 1310SOL    HW1 3885   2.151   3.722   1.307  1.7252 -0.1589  2.0603
 1310SOL    HW2 3886   1.997   3.740   1.360  0.4898 -2.3988 -0.5112
 1311SOL     OW 3887   1.066   3.029   0.661 -0.7617  0.1246 -0.0345
 1311SOL    HW1 3888   1.161   3.059   0.658 -0.4133 -0.9905 -2.1412
 1311SOL    HW2 3889   1.035   3.024   0.756  1.3639  0.1871  0.7027
 1312SOL     OW 3890   2.498   2.565   1.841  0.1120  0.3572  0.1373
 1312SOL    HW1 3891   2.541   2.493   1.895  0.3983  0.5452  0.1630
 1312SOL    HW2 3892   2.518   2.654   1.882 -0.7683  0.4164  0.4748
 1313SOL     OW 3893   2.646   2.489   0.418  0.2877  0.5888  0.5014
 1313SOL    HW1 3894   2.596   2.422   0.363 -0.1913  1.0497  0.3647
 1313SOL    HW2 3895   2.586   2.567   0.438  0.2207  0.1382  2.2369
 1314SOL     OW 3896   2.720   0.555   3.306 -0.2501 -0.6198 -0.2739
 1314SOL    HW1 3897   2.765   0.630   3.354  0.5426 -2.9514  3.0421
 1314SOL    HW2 3898   2.780   0.520   3.234 -0.1286  1.0693 -1.0397
 1315SOL     OW 3899   3.139   3.050   2.841  0.1673  0.3352  0.7696
 1315SOL    HW1 3900   3.194   3.114   2.788 -0.6290  0.9281  0.6426
 1315SOL    HW2 3901   3.192   3.017   2.919  1.0607  0.0847  0.0753
 1316SOL     OW 3902   2.257   3.117   0.923  0.4038 -0.1587 -0.6762
 1316SOL    HW1 3903   2.341   3.099   0.973  1.3295  1.4623 -1.5506
 1316SOL    HW2 3904   2.199   3.035   0.924  0.8651 -0.5484  2.0135
 1317SOL     OW 3905   2.394   3.229   0.699  0.0188 -0.9430  0.5918
 1317SOL    HW1 3906   2.369   3.322   0.673  0.5219 -1.4346 -1.8748
 1317SOL    HW2 3907   2.342   3.202   0.781 -1.0217  1.0430  0.6469
 1318SOL     OW 3908   1.787   3.523   0.529 -0.4638  0.0417  0.0483
 1318SOL    HW1 3909   1.751   3.455   0.593 -1.3921  0.7332  0.2793
 1318SOL    HW2 3910   1.726   3.531   0.451 -2.7358  3.5285  1.9210
 1319SOL     OW 3911   2.094   1.749   0.426 -0.1105  0.1206  0.4409
 1319SOL    HW1 3912   2.121   1.681   0.493  0.2995 -0.3263 -0.1699
 1319SOL    HW2 3913   2.175   1.789   0.383 -0.3595  0.5523  0.3588
 1320SOL     OW 3914   1.222   2.949   3.110  0.1145  0.4434 -0.1131
 1320SOL    HW1 3915   1.219   2.982   3.204  0.5306 -0.6373  0.2993
 1320SOL    HW2 3916   1.315   2.919   3.088 -0.2869 -0.6500 -0.3763
 1321SOL     OW 3917   1.721   1.552   0.087  0.0615  0.6763 -0.2289
 1321SOL    HW1 3918   1.738   1.545  -0.011 -0.9221 -1.4078 -0.3124
 1321SOL    HW2 3919   1.807   1.558   0.136  0.6007  0.7439 -1.1710
 1322SOL     OW 3920   3.026   0.142   3.703 -0.1328  0.2948 -0.5067
 1322SOL    HW1 3921   2.931   0.144   3.671 -0.4106 -0.5673  0.2184
 1322SOL    HW2 3922   3.082   0.090   3.639 -0.2081  0.5380 -0.7724
 1323SOL     OW 3923   2.255   0.161   0.271  0.6290  0.3573 -0.4198
 1323SOL    HW1 3924   2.331   0.174   0.335 -0.1551  0.3450  0.5531
 1323SOL    HW2 3925   2.223   0.066   0.277 -0.8134  0.8699  0.7951
 1324SOL     OW 3926   0.769   3.139   0.312 -0.2183 -0.1187  0.1881
 1324SOL    HW1 3927   0.686   3.191   0.330 -0.3835 -0.5872  0.7913
 1324SOL    HW2 3928   0.837   3.159   0.382 -0.0541 -0.2314  0.0613
 1325SOL     OW 3929   3.083   3.497   3.641 -0.4911 -0.6266  0.3201
 1325SOL    HW1 3930   3.067   3.539   3.731  0.3756  1.9902 -0.6405
 1325SOL    HW2 3931   3.138   3.414   3.653  0.5209  0.2332  2.1430
 1326SOL     OW 3932   1.313   2.631   0.486 -0.0717 -0.0400 -0.1441
 1326SOL    HW1 3933   1.270   2.699   0.427  0.0250  1.7184  1.7033
 1326SOL    HW2 3934   1.244   2.590   0.546 -0.2010 -1.9368 -1.5060
 1327SOL     OW 3935   2.649   2.005   0.579  0.3537  0.6122 -0.3086
 1327SOL    HW1 3936   2.551   2.002   0.560  0.1844  0.4595  0.5448
 1327SOL    HW2 3937   2.678   1.919   0.619  0.8957  0.5624 -0.7970
 1328SOL     OW 3938   3.540   3.749   0.690 -0.9514  0.2949 -0.2138
 1328SOL    HW1 3939   3.508   3.735   0.596 -1.2182  0.1158 -0.0982
 1328SOL    HW2 3940   3.562   3.661   0.731 -0.5511  0.3967 -0.2044
 1329SOL     OW 3941   3.515   2.267   3.441 -0.5051 -0.4844 -0.2985
 1329SOL    HW1 3942   3.607   2.229   3.430  0.0564  0.7072  0.0840
 1329SOL    HW2 3943   3.496   2.281   3.538 -0.7048  0.1752 -0.4270
 1330SOL     OW 3944   0.762   0.129   1.647  0.0144  0.0947 -0.4153
 1330SOL    HW1 3945   0.797   0.175   1.728 -0.8830  0.0942 -0.0141
 1330SOL    HW2 3946   0.838   0.087   1.597  0.6986  0.9410 -0.1250
 1331SOL     OW 3947   0.525   3.294   0.304  0.3816  0.5147  0.1266
 1331SOL    HW1 3948   0.469   3.222   0.263  1.6325  0.1170 -0.9625
 1331SOL    HW2 3949   0.494   3.311   0.398 -1.1483 -0.0993 -0.2389
 1332SOL     OW 3950   3.512   2.471   0.786 -0.1142  0.2132 -0.1079
 1332SOL    HW1 3951   3.472   2.493   0.697 -0.3152  0.4461  0.0396
 1332SOL    HW2 3952   3.470   2.529   0.857 -1.0023 -0.9595  0.3658
 1333SOL     OW 3953   1.869   2.840   2.128 -0.5470  0.3321  0.3223
 1333SOL    HW1 3954   1.838   2.802   2.041 -0.2070 -1.0870  0.7919
 1333SOL    HW2 3955   1.799   2.823   2.198 -1.3531  2.5014  0.1212
 1334SOL     OW 3956   2.057   3.144   1.582 -0.1478 -0.2652 -0.3080
 1334SOL    HW1 3957   2.114   3.218   1.546 -1.0371 -0.0101 -1.2387
 1334SOL    HW2 3958   2.107   3.096   1.654  1.3025 -0.1479 -1.1885
 1335SOL     OW 3959   0.542   0.612   0.870  0.4903 -0.6642  0.0777
 1335SOL    HW1 3960   0.637   0.605   0.839  0.7027 -3.8788  1.1408
 1335SOL    HW2 3961   0.536   0.583   0.965 -1.4524  0.5907  0.3928
 1336SOL     OW 3962   2.117   2.767   2.962 -0.1516 -0.2783 -0.0822
 1336SOL    HW1 3963   2.139   2.764   3.060  0.9533  0.9535 -0.2663
 1336SOL    HW2 3964   2.162   2.692   2.915 -2.0897 -1.9436  0.5670
 1337SOL     OW 3965   0.192   3.117   0.603  0.5858 -0.3594 -0.6405
 1337SOL    HW1 3966   0.241   3.194   0.562 -1.4240  1.7440  0.6989
 1337SOL    HW2 3967   0.191   3.040   0.539  2.5298  0.7378 -2.0873
 1338SOL     OW 3968   0.455   2.850   3.784  0.9161 -0.0178 -0.2925
 1338SOL    HW1 3969   0.460   2.788   3.863  0.5117  0.5919  0.2253
 1338SOL    HW2 3970   0.490   2.803   3.703 -1.5321 -1.7656 -0.4472
 1339SOL     OW 3971   2.923   1.532   0.869 -0.0383  0.1601  0.8963
 1339SOL    HW1 3972   2.925   1.585   0.784  0.6132 -1.6682 -0.2943
 1339SOL    HW2 3973   3.008   1.548   0.920 -0.3660  1.1445  1.1612
 1340SOL     OW 3974   3.464   2.107   2.252  0.1188  0.4721 -0.2911
 1340SOL    HW1 3975   3.553   2.125   2.211 -0.3037  0.9554 -1.0141
 1340SOL    HW2 3976   3.476   2.083   2.348  0.9960  0.8924 -0.2855
 1341SOL     OW 3977   2.809   3.414   2.489  0.5067 -0.2533 -0.1704
 1341SOL    HW1 3978   2.726   3.363   2.469 -0.6181  0.9776  1.1569
 1341SOL    HW2 3979   2.882   3.386   2.427 -0.9078 -1.3222 -1.3890
 1342SOL     OW 3980   2.291   2.745   0.834 -0.9077 -0.0697 -0.2355
 1342SOL    HW1 3981   2.377   2.698   0.854  0.1696  2.2426  0.8749
 1342SOL    HW2 3982   2.290   2.774   0.738 -0.3136  0.1695 -0.1710
 1343SOL     OW 3983   1.962   1.997   0.445 -0.0263  0.2501  0.4830
 1343SOL    HW1 3984   1.987   2.043   0.360 -1.8705  0.0619 -0.2239
 1343SOL    HW2 3985   2.006   1.907   0.448  2.4973  1.4310  1.2283
 1344SOL     OW 3986   2.169   1.823   0.044 -0.4099  0.6356  0.0018
 1344SOL    HW1 3987   2.198   1.753   0.109  0.0407  1.0564  0.2537
 1344SOL    HW2 3988   2.247   1.879   0.017 -0.7413  0.9614 -0.3049
 1345SOL     OW 3989   1.783   0.597   1.457 -0.5209 -0.2864 -0.4531
 1345SOL    HW1 3990   1.786   0.561   1.364  1.1813  1.4731 -1.1481
 1345SOL    HW2 3991   1.710   0.665   1.465 -0.6735 -0.4457 -0.4874
 1346SOL     OW 3992   2.549   1.809   2.504 -0.1341  0.7679  0.8561
 1346SOL    HW1 3993   2.565   1.884   2.439  1.8015  0.4831  0.9621
 1346SOL    HW2 3994   2.531   1.725   2.454  0.6143  0.7007  0.7027
 1347SOL     OW 3995   0.146   2.677   1.994  0.1140  0.5106 -0.1378
 1347SOL    HW1 3996   0.220   2.613   2.016 -0.3507 -0.1406 -0.4331
 1347SOL    HW2 3997   0.078   2.630   1.938 -1.0033  0.8128  0.9254
 1348SOL     OW 3998   0.041   2.397   0.572  0.1686  0.1253  0.1247
 1348SOL    HW1 3999  -0.025   2.378   0.500 -0.0694  0.5146  0.2339
 1348SOL    HW2 4000   0.131   2.361   0.546  0.0147 -0.0088 -0.2239
 1349SOL     OW 4001   2.965   2.138   1.603 -0.2524 -0.7552 -0.2623
 1349SOL    HW1 4002   2.983   2.137   1.505 -1.3354 -0.4798 -0.4829
 1349SOL    HW2 4003   2.982   2.230   1.639  0.8541 -1.0377 -0.0389
 1350SOL     OW 4004   0.373   3.343   3.706  0.0456 -0.1638 -0.0514
 1350SOL    HW1 4005   0.373   3.343   3.606 -0.8759 -2.4818 -0.1064
 1350SOL    HW2 4006   0.413   3.258   3.739 -0.6913  0.0710  1.5454
 1351SOL     OW 4007   1.911   0.364   2.684  0.3235 -0.1393  0.4338
 1351SOL    HW1 4008   1.864   0.452   2.677 -0.7642 -0.7565 -0.5571
 1351SOL    HW2 4009   1.994   0.374   2.738  1.0531  1.8260 -0.9486
 1352SOL     OW 4010   3.642   3.445   0.056 -0.0722  0.4725 -0.3678
 1352SOL    HW1 4011   3.694   3.529   0.069 -2.1285  1.6570  0.6528
 1352SOL    HW2 4012   3.663   3.381   0.130  1.1346  0.2418 -0.8836
 1353SOL     OW 4013   2.732   2.642   2.368  0.1714 -0.1573 -0.4894
 1353SOL    HW1 4014   2.712   2.639   2.466 -0.0297 -2.2153 -0.5401
 1353SOL    HW2 4015   2.674   2.575   2.321 -0.7032  1.7290 -2.2347
 1354SOL     OW 4016   1.930   2.617   0.881  0.1979 -0.2198  0.1431
 1354SOL    HW1 4017   1.856   2.584   0.939 -0.5144  0.5892 -0.2841
 1354SOL    HW2 4018   1.934   2.563   0.797  1.0060 -1.1632  0.7543
 1355SOL     OW 4019   2.518   3.042   0.543 -0.2122  0.4944  0.4333
 1355SOL    HW1 4020   2.572   3.068   0.463  2.3930  0.5510  2.0772
 1355SOL    HW2 4021   2.468   3.121   0.578  0.3700  1.0016  0.1254
 1356SOL     OW 4022   0.265   1.567   2.143  0.7388  0.9389  0.2128
 1356SOL    HW1 4023   0.331   1.596   2.074 -0.9966  0.3447 -1.7841
 1356SOL    HW2 4024   0.275   1.469   2.160 -1.5154  0.1434 -2.4112
 1357SOL     OW 4025   3.185   3.713   0.894  0.8986 -0.2915 -0.3870
 1357SOL    HW1 4026   3.196   3.786   0.827 -1.0911  0.1377 -0.2845
 1357SOL    HW2 4027   3.171   3.626   0.848  0.0278 -0.0754 -0.5438
 1358SOL     OW 4028   2.229   2.475   1.805 -0.2028  0.2238  0.6518
 1358SOL    HW1 4029   2.163   2.502   1.734 -1.5161 -0.0594  1.7114
 1358SOL    HW2 4030   2.318   2.514   1.784 -0.5601  0.1967 -1.1170
 1359SOL     OW 4031   3.728   2.266   0.294 -0.2190  0.0623 -0.7900
 1359SOL    HW1 4032   3.658   2.200   0.323  0.6773 -2.0173 -2.9572
 1359SOL    HW2 4033   3.685   2.353   0.273 -1.5139  0.1627  1.8053
 1360SOL     OW 4034   2.769   0.456   0.427  0.6397  0.4530  0.1673
 1360SOL    HW1 4035   2.857   0.414   0.406  0.7066  0.9388 -0.5662
 1360SOL    HW2 4036   2.722   0.479   0.342 -1.5729 -2.5281  0.4388
 1361SOL     OW 4037   2.857   2.067   0.391 -0.1118  0.2043 -0.1939
 1361SOL    HW1 4038   2.894   2.159   0.381 -0.2635  0.3621  0.6451
 1361SOL    HW2 4039   2.804   2.061   0.475 -0.7631 -0.4325 -0.6359
 1362SOL     OW 4040   1.843   3.268   1.739  0.2287  0.4380 -1.0754
 1362SOL    HW1 4041   1.902   3.213   1.680 -0.2001 -3.4350  1.6721
 1362SOL    HW2 4042   1.894   3.294   1.822 -0.7488  0.7283 -0.5445
 1363SOL     OW 4043   2.182   3.417   1.515  0.5854  0.0819  0.0231
 1363SOL    HW1 4044   2.121   3.412   1.435  0.8028 -0.3431 -0.1211
 1363SOL    HW2 4045   2.273   3.383   1.489  0.2358 -1.5867  0.8381
 1364SOL     OW 4046   2.520   2.685   1.017 -0.2954 -0.2966  0.8248
 1364SOL    HW1 4047   2.456   2.609   1.021  0.2185 -0.7302  1.0429
 1364SOL    HW2 4048   2.491   2.757   1.080 -1.4766  0.2540 -0.3133
 1365SOL     OW 4049   1.839   1.056   2.419  0.1852  0.4918  0.5088
 1365SOL    HW1 4050   1.841   1.125   2.491  1.0232  2.0475 -0.9196
 1365SOL    HW2 4051   1.912   1.076   2.353 -2.5021  1.1150 -2.4872
 1366SOL     OW 4052   1.963   2.979   3.635  0.1298  0.6007  0.1602
 1366SOL    HW1 4053   2.037   2.951   3.695  0.2482 -2.0360 -1.0669
 1366SOL    HW2 4054   1.885   3.010   3.689  0.7539 -0.2653  1.5993
 1367SOL     OW 4055   2.281   3.021   2.212 -0.1454  0.4760 -0.6695
 1367SOL    HW1 4056   2.236   2.934   2.190  0.5397 -0.1363  0.3037
 1367SOL    HW2 4057   2.258   3.048   2.305 -0.6162  1.5206 -1.0765
 1368SOL     OW 4058   3.161   3.451   2.157 -0.2580  0.5855  0.0726
 1368SOL    HW1 4059   3.199   3.366   2.120  1.6275  1.0918  0.6960
 1368SOL    HW2 4060   3.170   3.523   2.088 -0.0595  0.7135  0.2307
 1369SOL     OW 4061   0.554   2.882   0.535 -0.3986 -0.0965  0.1204
 1369SOL    HW1 4062   0.506   2.939   0.601 -1.2233  1.7642 -1.9882
 1369SOL    HW2 4063   0.504   2.796   0.522 -1.2657  0.3502  0.4695
 1370SOL     OW 4064   3.061   2.285   0.429  0.3027  0.2297 -0.0719
 1370SOL    HW1 4065   3.118   2.300   0.348 -0.2523 -0.4803 -0.6123
 1370SOL    HW2 4066   3.008   2.367   0.448  1.1422  0.7302  0.1469
 1371SOL     OW 4067   2.235   2.315   1.552  0.3380 -0.7988 -0.1329
 1371SOL    HW1 4068   2.280   2.271   1.629  0.5468  2.1727  1.5873
 1371SOL    HW2 4069   2.296   2.317   1.473  1.6532 -0.5132  0.8608
 1372SOL     OW 4070   1.407   1.506   0.811 -0.4789 -0.5809 -0.0696
 1372SOL    HW1 4071   1.415   1.598   0.847  1.1390 -1.2363  1.4042
 1372SOL    HW2 4072   1.471   1.445   0.859 -0.0500 -2.0678 -2.3345
 1373SOL     OW 4073   0.548   3.490   0.114  0.1867 -0.5791 -0.3916
 1373SOL    HW1 4074   0.542   3.415   0.179 -0.1203 -0.4798 -0.3049
 1373SOL    HW2 4075   0.488   3.471   0.036  1.4421 -1.2743 -1.2387
 1374SOL     OW 4076   1.562   0.761   1.129  0.2878 -0.2584 -0.1041
 1374SOL    HW1 4077   1.472   0.788   1.164  0.2200 -0.0273 -0.4509
 1374SOL    HW2 4078   1.627   0.835   1.145  0.6085 -0.7421  0.8672
 1375SOL     OW 4079   2.296   2.541   0.238  0.0869  0.7353  0.9889
 1375SOL    HW1 4080   2.240   2.458   0.239 -0.0919  0.7546 -1.4777
 1375SOL    HW2 4081   2.254   2.610   0.297 -2.4846  0.6834 -0.6215
 1376SOL     OW 4082   0.839   2.813   0.599  0.3999  0.9291 -0.1072
 1376SOL    HW1 4083   0.744   2.828   0.573  0.7679 -0.7693 -2.7687
 1376SOL    HW2 4084   0.894   2.893   0.572  0.2450  0.4763 -1.9202
 1377SOL     OW 4085   2.292   3.543   0.060  0.0746 -0.1325 -0.0347
 1377SOL    HW1 4086   2.239   3.465   0.094 -1.7400  1.0216 -0.1067
 1377SOL    HW2 4087   2.306   3.609   0.133 -0.3787  0.5238 -0.5333
 1378SOL     OW 4088   2.098   2.568   1.570 -0.0223 -0.1709 -0.0227
 1378SOL    HW1 4089   2.118   2.643   1.506 -1.5197 -0.0695 -0.4098
 1378SOL    HW2 4090   2.153   2.488   1.546  0.5536  0.3602 -0.4864
 1379SOL     OW 4091   2.929   3.577   1.879  0.5355 -0.3637 -1.0363
 1379SOL    HW1 4092   2.856   3.511   1.861  0.5720 -0.0593 -2.3765
 1379SOL    HW2 4093   2.901   3.637   1.954 -0.2935 -0.6895 -1.0715
 1380SOL     OW 4094   0.164   0.101   0.243 -0.0101 -0.2477  0.1422
 1380SOL    HW1 4095   0.221   0.026   0.207 -0.6852 -1.2487  1.1101
 1380SOL    HW2 4096   0.087   0.117   0.181  0.7138  0.3882 -0.6174
 1381SOL     OW 4097   2.717   2.990   2.320  0.3272 -0.0167  0.3275
 1381SOL    HW1 4098   2.805   2.969   2.277  1.1757  2.1157  0.8873
 1381SOL    HW2 4099   2.728   2.986   2.420 -0.9564 -2.3649  0.4458
 1382SOL     OW 4100   3.386   2.269   0.476 -0.6672 -0.3159 -0.1374
 1382SOL    HW1 4101   3.362   2.257   0.380  1.6872 -0.9296 -0.7225
 1382SOL    HW2 4102   3.447   2.195   0.505 -0.1452  0.6560  1.4044
 1383SOL     OW 4103   0.213   1.220   1.553 -0.0932  0.0764 -0.3340
 1383SOL    HW1 4104   0.176   1.203   1.645  0.3521  0.8680  0.0039
 1383SOL    HW2 4105   0.174   1.155   1.489 -0.4302 -0.4760  0.4173
 1384SOL     OW 4106   2.721   1.208   0.773 -0.2088 -0.0097 -0.1263
 1384SOL    HW1 4107   2.693   1.271   0.701  1.0792 -0.9627 -1.5203
 1384SOL    HW2 4108   2.819   1.189   0.765 -0.3216 -1.2609  1.0081
 1385SOL     OW 4109   3.661   0.760   1.080 -0.0818 -0.6388 -0.2611
 1385SOL    HW1 4110   3.692   0.685   1.139  0.7408 -0.4437 -0.4285
 1385SOL    HW2 4111   3.730   0.777   1.010 -0.0054  0.6117  0.0868
 1386SOL     OW 4112   3.267   2.982   0.253 -0.0367 -0.4220  0.0956
 1386SOL    HW1 4113   3.268   2.890   0.294 -1.3126 -0.4028  0.2225
 1386SOL    HW2 4114   3.199   3.038   0.300 -1.7746 -0.4805 -2.1697
 1387SOL     OW 4115   0.770   2.100   0.972 -0.5810 -0.0785 -0.0370
 1387SOL    HW1 4116   0.708   2.167   0.931 -0.1539  1.4078  1.6406
 1387SOL    HW2 4117   0.734   2.071   1.061  0.6370  0.1020  0.5386
 1388SOL     OW 4118   2.092   3.531   1.765  0.3616 -0.2898  0.0390
 1388SOL    HW1 4119   2.135   3.478   1.693 -0.5813  0.8860 -1.4605
 1388SOL    HW2 4120   2.033   3.472   1.820 -0.5214 -0.8610 -1.4739
 1389SOL     OW 4121   1.858   2.462   0.313 -0.1928 -0.0407  0.3496
 1389SOL    HW1 4122   1.764   2.464   0.348  0.1968 -0.3169  1.4499
 1389SOL    HW2 4123   1.862   2.513   0.227 -0.8797  2.0337  1.4708
 1390SOL     OW 4124   0.565   1.988   3.463  0.4699  0.1470 -0.5158
 1390SOL    HW1 4125   0.634   1.922   3.494 -0.1290  0.0758  0.7517
 1390SOL    HW2 4126   0.474   1.953   3.485  0.1116  1.0430 -0.5569
 1391SOL     OW 4127   2.000   0.848   0.749 -0.0397  0.1209 -0.3330
 1391SOL    HW1 4128   1.990   0.935   0.797  2.3791 -0.4464  1.4256
 1391SOL    HW2 4129   1.960   0.775   0.804 -0.8695 -0.0709 -1.1689
 1392SOL     OW 4130   0.190   3.167   1.104  0.0554  0.4541 -0.1912
 1392SOL    HW1 4131   0.177   3.174   1.005  1.3559  0.0070 -0.4149
 1392SOL    HW2 4132   0.101   3.167   1.149 -0.5969 -0.1650 -1.4215
 1393SOL     OW 4133   3.123   2.027   0.564 -0.1354 -0.1621 -0.2565
 1393SOL    HW1 4134   3.046   2.013   0.501  1.0672  0.1191 -1.8300
 1393SOL    HW2 4135   3.160   2.119   0.552  0.4193 -0.2762  0.5306
 1394SOL     OW 4136   2.326   3.492   1.985  0.0247 -0.2517 -0.0285
 1394SOL    HW1 4137   2.296   3.401   2.015 -0.2596  0.0067  0.4670
 1394SOL    HW2 4138   2.253   3.536   1.934  0.9407 -1.2171 -2.3115
 1395SOL     OW 4139   1.941   0.562   2.280  0.1950  0.9653  0.2269
 1395SOL    HW1 4140   1.911   0.637   2.338  1.0081  0.7512  0.9460
 1395SOL    HW2 4141   2.031   0.583   2.242  1.1835 -0.3003  1.7444
 1396SOL     OW 4142   3.143   3.137   1.439  0.2625  0.6032  0.4858
 1396SOL    HW1 4143   3.116   3.127   1.343 -0.2403 -0.5324  0.7287
 1396SOL    HW2 4144   3.174   3.231   1.455 -1.2643  1.2827 -0.3729
 1397SOL     OW 4145   3.186   2.067   1.753  0.7973 -0.1142  0.0442
 1397SOL    HW1 4146   3.229   1.985   1.716 -0.8193 -0.0934 -2.0403
 1397SOL    HW2 4147   3.107   2.092   1.697  0.0223  1.7140  1.8186
 1398SOL     OW 4148   2.546   2.270   1.050  0.3502 -0.0502  0.4915
 1398SOL    HW1 4149   2.619   2.261   0.982 -0.3774 -1.4510 -0.1493
 1398SOL    HW2 4150   2.507   2.179   1.068 -1.4529  0.7094  0.5629
 1399SOL     OW 4151   2.364   2.964   3.382 -0.3774 -0.0680 -0.4224
 1399SOL    HW1 4152   2.435   2.907   3.423 -0.5493  0.6435  0.9213
 1399SOL    HW2 4153   2.371   2.960   3.282  2.1234  0.6739 -0.3474
 1400SOL     OW 4154   2.026   1.589   0.782 -0.1949  0.3779 -0.3384
 1400SOL    HW1 4155   2.097   1.582   0.711  0.3731 -1.9422  0.3789
 1400SOL    HW2 4156   2.067   1.626   0.865 -0.3087  0.8977 -0.5104
 1401SOL     OW 4157   3.055   3.100   0.425 -0.0227 -0.2572 -1.1941
 1401SOL    HW1 4158   3.060   3.065   0.519  1.1721 -2.0289 -1.8569
 1401SOL    HW2 4159   2.996   3.180   0.422 -2.3628 -1.7792  0.5970
 1402SOL     OW 4160   0.938   2.274   2.467  0.1130  0.2299  0.3269
 1402SOL    HW1 4161   0.851   2.305   2.505 -0.4240 -0.7186 -0.0768
 1402SOL    HW2 4162   1.000   2.250   2.541 -0.4854 -0.4293  0.6240
 1403SOL     OW 4163   0.327   2.201   0.923  0.0003  0.6008  0.2558
 1403SOL    HW1 4164   0.248   2.190   0.863  0.4871 -0.3290 -0.2499
 1403SOL    HW2 4165   0.302   2.254   1.004 -2.0440 -2.4917  1.8186
 1404SOL     OW 4166   2.774   2.622   1.117 -0.2710  0.1951 -0.0972
 1404SOL    HW1 4167   2.844   2.601   1.048  2.3137  1.8967  1.8250
 1404SOL    HW2 4168   2.689   2.647   1.071  0.5986 -1.0259 -2.5747
 1405SOL     OW 4169   2.805   3.217   3.135 -0.8150 -0.3608 -0.1477
 1405SOL    HW1 4170   2.781   3.266   3.219  0.8393 -0.8724  0.6789
 1405SOL    HW2 4171   2.827   3.282   3.063 -0.6562  0.1029  0.3154
 1406SOL     OW 4172   1.598   0.778   1.506  0.4142  0.2827 -0.6188
 1406SOL    HW1 4173   1.511   0.781   1.555  1.6349  1.7072  1.6270
 1406SOL    HW2 4174   1.626   0.871   1.481  1.3363 -0.1448 -1.2501
 1407SOL     OW 4175   2.831   1.442   0.479 -0.2320  0.2601  0.0329
 1407SOL    HW1 4176   2.903   1.377   0.506 -0.3401 -0.4516 -1.2833
 1407SOL    HW2 4177   2.742   1.397   0.486 -0.4292  0.7069  0.3867
 1408SOL     OW 4178   2.511   3.109   1.643 -0.5228  0.1087 -0.0343
 1408SOL    HW1 4179   2.540   3.142   1.732  0.5390  1.0553 -0.7077
 1408SOL    HW2 4180   2.579   3.046   1.607  0.0424  1.2468 -1.0126
 1409SOL     OW 4181   2.332   1.390   1.323  0.4000 -0.2193 -0.4815
 1409SOL    HW1 4182   2.306   1.457   1.393  0.4937  1.7817 -2.2324
 1409SOL    HW2 4183   2.385   1.436   1.252 -0.2464 -1.9905 -2.1971
 1410SOL     OW 4184   3.666   3.244   0.878  0.0433 -0.3397  0.6508
 1410SOL    HW1 4185   3.587   3.255   0.818  0.2768 -1.5110  0.1020
 1410SOL    HW2 4186   3.696   3.333   0.910 -0.0484  0.3258 -1.0303
 1411SOL     OW 4187   2.762   3.569   2.711 -0.1010  0.3898  0.5994
 1411SOL    HW1 4188   2.794   3.505   2.642 -1.4249  0.5570 -0.2198
 1411SOL    HW2 4189   2.832   3.638   2.728 -0.2317  1.1321 -1.5905
 1412SOL     OW 4190   3.074   1.574   0.038  0.4236 -0.0575  0.3443
 1412SOL    HW1 4191   3.008   1.542   0.106 -0.7726  0.4099 -0.5712
 1412SOL    HW2 4192   3.097   1.670   0.055  1.4209 -0.4048  1.0677
 1413SOL     OW 4193   1.675   2.908   1.463 -0.7067 -0.1763  0.0507
 1413SOL    HW1 4194   1.692   2.816   1.498 -1.5856  0.1532  1.4770
 1413SOL    HW2 4195   1.703   2.975   1.532  1.8363  0.7587 -1.7648
 1414SOL     OW 4196   0.700   2.341   1.268  0.4259 -0.0332  0.0547
 1414SOL    HW1 4197   0.650   2.417   1.227  1.3509  0.9309  0.6732
 1414SOL    HW2 4198   0.691   2.344   1.367  0.3892 -0.8058  0.0871
 1415SOL     OW 4199   3.048   2.765   1.046 -0.0399 -0.6366 -0.2107
 1415SOL    HW1 4200   3.137   2.805   1.022  1.4166 -1.9807  2.5256
 1415SOL    HW2 4201   3.034   2.682   0.994  0.3654 -0.4869 -0.5679
 1416SOL     OW 4202   2.296   2.016   1.138  0.2202 -0.4211 -0.1823
 1416SOL    HW1 4203   2.215   2.021   1.078 -0.4629 -0.1344  0.7383
 1416SOL    HW2 4204   2.377   1.997   1.083 -0.7241 -2.5454 -0.9253
 1417SOL     OW 4205   1.451   3.237   1.569  0.2504 -0.0944 -0.5476
 1417SOL    HW1 4206   1.515   3.170   1.607 -2.1921 -0.9262  2.4493
 1417SOL    HW2 4207   1.446   3.317   1.629  0.1149  0.9941 -1.9522
 1418SOL     OW 4208   2.594   2.174   1.468 -0.4723 -0.2590  0.1572
 1418SOL    HW1 4209   2.627   2.081   1.448 -2.4761 -1.2467  1.2283
 1418SOL    HW2 4210   2.672   2.237   1.469  1.0855 -2.0974  0.4819
 1419SOL     OW 4211   1.419   3.295   2.435  0.3197  0.1451 -0.5872
 1419SOL    HW1 4212   1.485   3.266   2.365 -0.3558 -0.9624 -0.7837
 1419SOL    HW2 4213   1.386   3.215   2.484  0.5406  0.8771  0.8049
 1420SOL     OW 4214   1.696   0.472   2.146 -0.0696 -1.1299 -0.1157
 1420SOL    HW1 4215   1.688   0.424   2.058  1.8323  0.1691 -1.0863
 1420SOL    HW2 4216   1.793   0.483   2.168 -0.4966  0.1416  1.2619
 1421SOL     OW 4217   0.817   1.346   0.796 -0.8464  0.0533  0.4037
 1421SOL    HW1 4218   0.844   1.267   0.851 -0.6243  0.9847  1.6581
 1421SOL    HW2 4219   0.881   1.355   0.719 -0.0820 -0.2060  0.9985
 1422SOL     OW 4220   3.171   0.402   1.169  0.3921  0.4014 -0.0049
 1422SOL    HW1 4221   3.247   0.460   1.138 -0.6637  3.0919  2.0212
 1422SOL    HW2 4222   3.196   0.358   1.255 -0.7254  2.4501  1.4447
 1423SOL     OW 4223   3.123   0.129   2.054 -0.3553  0.3314 -0.0387
 1423SOL    HW1 4224   3.086   0.113   2.145  0.5271 -0.7355  0.1610
 1423SOL    HW2 4225   3.186   0.055   2.031  0.9608  1.6126 -0.7076
 1424SOL     OW 4226   1.670   0.490   1.239 -0.2335  0.6298 -0.3802
 1424SOL    HW1 4227   1.645   0.399   1.273  0.7879  0.1190 -0.9461
 1424SOL    HW2 4228   1.587   0.542   1.218 -0.8348 -0.0109  0.3474
 1425SOL     OW 4229   2.343   2.276   1.308  0.1821 -0.6426 -0.0867
 1425SOL    HW1 4230   2.318   2.185   1.274  1.1625 -0.8348 -0.3332
 1425SOL    HW2 4231   2.442   2.279   1.323  0.4515  0.9157 -1.7715
 1426SOL     OW 4232   3.389   1.916   0.487 -0.1874  0.4582 -0.0227
 1426SOL    HW1 4233   3.462   1.979   0.514 -0.0740  0.4554 -0.3254
 1426SOL    HW2 4234   3.309   1.931   0.545 -0.0061  0.5782  0.1975
 1427SOL     OW 4235   0.031   1.733   0.355  0.0688 -0.3805  0.8550
 1427SOL    HW1 4236   0.122   1.754   0.320  0.0150  0.4889  1.1956
 1427SOL    HW2 4237  -0.033   1.726   0.278  0.7354 -2.9203  0.4425
 1428SOL     OW 4238   3.134   3.514   1.244  0.3427 -0.3068  0.2671
 1428SOL    HW1 4239   3.037   3.490   1.251  0.4735 -0.7022  0.8651
 1428SOL    HW2 4240   3.162   3.511   1.149 -0.3131  0.1388  0.0559
 1429SOL     OW 4241   1.389   3.190   1.312  0.3752  0.1345 -0.0458
 1429SOL    HW1 4242   1.405   3.202   1.410 -0.7731 -0.4640  0.2333
 1429SOL    HW2 4243   1.312   3.246   1.283  0.0096 -0.5162 -0.3700
 1430SOL     OW 4244   2.923   1.743   3.632 -0.4878  0.1965 -0.2354
 1430SOL    HW1 4245   2.883   1.654   3.613 -2.0437  1.0498 -1.1724
 1430SOL    HW2 4246   2.890   1.777   3.720 -1.2394  0.5377 -0.6324
 1431SOL     OW 4247   3.210   2.221   2.308 -0.8566  0.1633  0.3409
 1431SOL    HW1 4248   3.158   2.291   2.259  0.2285  0.6131 -0.2275
 1431SOL    HW2 4249   3.293   2.199   2.256 -0.1277 -0.0144  1.5312
 1432SOL     OW 4250   0.676   2.048   1.837 -0.5059 -0.2040  0.0622
 1432SOL    HW1 4251   0.681   2.072   1.741  2.0131  0.5013  0.3093
 1432SOL    HW2 4252   0.700   2.127   1.893 -0.9397 -0.8745  1.2364
 1433SOL     OW 4253   3.043   2.529   3.788 -0.3769 -0.2620 -0.0174
 1433SOL    HW1 4254   2.990   2.444   3.789 -0.6327 -0.1071  0.9257
 1433SOL    HW2 4255   3.026   2.580   3.872 -0.8941  1.1450 -0.9297
 1434SOL     OW 4256   0.344   0.127   1.369 -0.2728  0.0072 -0.5223
 1434SOL    HW1 4257   0.296   0.214   1.354 -0.6066 -0.0965 -0.0830
 1434SOL    HW2 4258   0.301   0.079   1.446 -0.0174 -0.4937 -0.6930
 1435SOL     OW 4259   3.595   2.477   0.217  0.1852 -0.3776 -0.2663
 1435SOL    HW1 4260   3.534   2.556   0.214 -1.7779 -1.8209 -0.4478
 1435SOL    HW2 4261   3.669   2.490   0.150 -0.4947  0.9705 -0.8038
 1436SOL     OW 4262   2.792   2.291   0.874 -0.5787 -0.2691  0.0727
 1436SOL    HW1 4263   2.737   2.308   0.792  1.4427 -1.0245 -1.5381
 1436SOL    HW2 4264   2.862   2.222   0.853  0.6890  0.3061  2.1394
 1437SOL     OW 4265   1.725   2.817   1.031 -0.3182  0.2597 -0.8239
 1437SOL    HW1 4266   1.808   2.854   0.987  1.2749 -0.5873  1.2889
 1437SOL    HW2 4267   1.748   2.787   1.123 -3.2642  0.9235  0.2059
 1438SOL     OW 4268   2.201   2.346   0.609  0.0904  0.1375  0.5274
 1438SOL    HW1 4269   2.267   2.390   0.670 -0.5589  1.1339  0.5246
 1438SOL    HW2 4270   2.151   2.415   0.558  1.8986 -0.6452 -2.5911
 1439SOL     OW 4271   3.003   3.256   0.754 -0.3668  0.1923 -0.0877
 1439SOL    HW1 4272   3.034   3.162   0.742  0.5316  0.5907 -1.1516
 1439SOL    HW2 4273   2.904   3.258   0.767 -0.4050 -0.8885 -0.1741
 1440SOL     OW 4274   2.962   2.527   0.934  0.4591  0.0993  0.2490
 1440SOL    HW1 4275   2.905   2.458   0.890  0.4371  1.2611 -1.6752
 1440SOL    HW2 4276   3.026   2.564   0.866  3.6873 -1.2558  2.3094
 1441SOL     OW 4277   2.678   2.864   0.665 -0.1406  0.0078  0.7710
 1441SOL    HW1 4278   2.623   2.781   0.671  1.1295 -1.0157 -0.9009
 1441SOL    HW2 4279   2.627   2.935   0.617 -0.3531 -0.6156  0.0665
 1442SOL     OW 4280   3.699   1.990   1.904  0.2286  0.1434 -0.2827
 1442SOL    HW1 4281   3.612   1.939   1.900  0.6599 -0.7817  1.2405
 1442SOL    HW2 4282   3.680   2.085   1.927 -0.6055  0.8230 -3.2905
 1443SOL     OW 4283   3.658   1.483   1.954 -0.0935  0.3981 -0.1682
 1443SOL    HW1 4284   3.741   1.475   1.899 -0.2658  1.5800 -0.6250
 1443SOL    HW2 4285   3.587   1.529   1.900 -0.7255  0.2990  0.5641
 1444SOL     OW 4286   3.163   2.935   1.607 -0.2528  0.1853  0.4796
 1444SOL    HW1 4287   3.152   3.013   1.545  0.2923  0.4151  0.6705
 1444SOL    HW2 4288   3.158   2.850   1.554  0.4028  0.3840  0.0842
 1445SOL     OW 4289   2.882   3.231   3.825 -0.3063 -0.0197 -0.1304
 1445SOL    HW1 4290   2.943   3.175   3.769 -1.1977  1.3722 -2.6806
 1445SOL    HW2 4291   2.930   3.315   3.852 -0.5016  0.2345 -0.5641
 1446SOL     OW 4292   2.473   2.645   1.383 -0.2688  0.3321  0.1932
 1446SOL    HW1 4293   2.521   2.579   1.326 -1.2358 -1.1521  1.0354
 1446SOL    HW2 4294   2.457   2.729   1.331  0.8760 -0.1155 -0.9341
 1447SOL     OW 4295   0.015   3.003   1.432 -0.4878 -0.3580 -0.3376
 1447SOL    HW1 4296   0.039   2.968   1.523 -2.1527  0.0867  0.3281
 1447SOL    HW2 4297   0.029   2.932   1.364 -1.1789 -1.4074  0.5808
 1448SOL     OW 4298   0.429   2.655   0.542  0.0639  0.0946 -0.5305
 1448SOL    HW1 4299   0.418   2.624   0.637 -0.1140 -0.3783 -0.7012
 1448SOL    HW2 4300   0.486   2.590   0.492  1.2196  0.9910 -0.4286
 1449SOL     OW 4301   3.368   2.765   1.716 -0.8112 -0.1126 -0.6325
 1449SOL    HW1 4302   3.280   2.812   1.712 -0.9152 -0.1283  0.8275
 1449SOL    HW2 4303   3.437   2.819   1.669 -1.1777  0.9493  0.0020
 1450SOL     OW 4304   2.384   0.856   3.278  0.5794 -0.3702  0.0036
 1450SOL    HW1 4305   2.434   0.780   3.319  1.4949  0.1912 -0.0557
 1450SOL    HW2 4306   2.390   0.851   3.178 -0.3852 -0.8941 -0.0363
 1451SOL     OW 4307   1.942   2.903   0.902  0.1508  0.3628  0.3083
 1451SOL    HW1 4308   2.015   2.917   0.970 -0.8186  1.5242  1.1620
 1451SOL    HW2 4309   1.942   2.808   0.873  1.9015  0.2914  0.3974
 1452SOL     OW 4310   2.387   0.079   3.068 -0.3461  0.4918 -0.2873
 1452SOL    HW1 4311   2.308   0.120   3.022  1.0974  1.4875 -1.9824
 1452SOL    HW2 4312   2.449   0.151   3.098  0.1551 -0.3036  0.6573
 1453SOL     OW 4313   1.306   1.623   0.402 -0.1596 -0.0793 -0.0734
 1453SOL    HW1 4314   1.213   1.625   0.364 -0.1093 -1.1223 -0.2727
 1453SOL    HW2 4315   1.367   1.675   0.342 -0.8311  1.7476  0.7412
 1454SOL     OW 4316   3.153   3.019   0.673 -0.1053 -0.2151 -0.0001
 1454SOL    HW1 4317   3.126   2.941   0.730  1.1965  0.1703  1.2067
 1454SOL    HW2 4318   3.245   3.049   0.700 -0.0150  0.8582 -1.4022
 1455SOL     OW 4319   2.912   2.891   0.313  0.4643 -0.5263 -0.4176
 1455SOL    HW1 4320   2.957   2.970   0.355 -2.4151  0.6904  0.6601
 1455SOL    HW2 4321   2.859   2.922   0.234 -1.7831 -1.0613  0.8080
 1456SOL     OW 4322   3.040   0.090   2.336  0.3336  0.2336 -0.0098
 1456SOL    HW1 4323   3.063  -0.007   2.327  1.1075  0.2343  1.5070
 1456SOL    HW2 4324   2.985   0.103   2.419  0.4879  1.1167 -0.0388
 1457SOL     OW 4325   0.089   2.375   0.142 -0.0907  0.0618 -0.4367
 1457SOL    HW1 4326   0.186   2.371   0.162  0.2075  0.9938 -1.5495
 1457SOL    HW2 4327   0.038   2.323   0.210  1.2825 -1.5186 -0.5625
 1458SOL     OW 4328   2.940   2.753   0.567  0.0275  0.5755  0.4238
 1458SOL    HW1 4329   2.852   2.768   0.613 -0.4018  2.6924 -0.9400
 1458SOL    HW2 4330   2.952   2.822   0.497  0.8855 -2.2071 -2.3689
 1459SOL     OW 4331   2.226   0.241   0.895 -0.4037  0.1710  0.1234
 1459SOL    HW1 4332   2.180   0.268   0.980 -0.5698  0.7309 -0.1430
 1459SOL    HW2 4333   2.169   0.175   0.846 -0.7661  0.5898 -0.0286
 1460SOL     OW 4334   3.028   2.668   1.315  0.2396 -0.2232 -0.6459
 1460SOL    HW1 4335   2.955   2.604   1.290  0.4616 -0.2700 -1.1891
 1460SOL    HW2 4336   3.040   2.735   1.242 -0.9178  1.3050  0.4907
 1461SOL     OW 4337   3.803   1.764   1.237  0.3595  0.0539  0.2496
 1461SOL    HW1 4338   3.719   1.714   1.215  0.9826 -0.7355 -0.3950
 1461SOL    HW2 4339   3.787   1.862   1.227 -0.3470 -0.1140 -0.3636
 1462SOL     OW 4340   1.507   2.474   1.126 -0.1891  0.6317  0.7547
 1462SOL    HW1 4341   1.465   2.387   1.152  0.6237 -0.1944 -0.5610
 1462SOL    HW2 4342   1.460   2.511   1.046 -0.3751  1.2941  1.1618
 1463SOL     OW 4343   2.459   2.844   3.674 -1.0286  0.0563  0.7020
 1463SOL    HW1 4344   2.410   2.785   3.738  2.6108 -0.9122  2.9023
 1463SOL    HW2 4345   2.521   2.789   3.618 -0.8818  1.3569 -0.4818
 1464SOL     OW 4346   3.662   2.013   1.199 -0.1179 -0.0577 -0.2049
 1464SOL    HW1 4347   3.687   2.092   1.145 -2.9137  1.1835  0.1349
 1464SOL    HW2 4348   3.608   1.949   1.143  1.3652 -1.3452 -0.2361
 1465SOL     OW 4349   2.422   2.954   3.097 -0.2164  0.2691  0.0982
 1465SOL    HW1 4350   2.519   2.961   3.070 -0.2091 -0.6229 -0.1330
 1465SOL    HW2 4351   2.374   3.037   3.068  0.3204  0.4012 -0.4541
 1466SOL     OW 4352   3.472   2.623   1.024  0.2415  0.5939  0.2575
 1466SOL    HW1 4353   3.553   2.677   1.003  0.6808 -1.0109 -2.8554
 1466SOL    HW2 4354   3.396   2.684   1.046  1.0993  2.4410 -1.5466
 1467SOL     OW 4355   3.351   0.354   0.751  0.2222 -0.1829  0.1328
 1467SOL    HW1 4356   3.401   0.268   0.753  0.1022 -0.2858 -0.9970
 1467SOL    HW2 4357   3.258   0.339   0.785  0.0331 -0.6169 -0.5637
 1468SOL     OW 4358   0.659   2.870   0.283 -0.1546  0.3593  0.8116
 1468SOL    HW1 4359   0.603   2.883   0.365 -0.6392  1.1291  0.3745
 1468SOL    HW2 4360   0.705   2.956   0.260  2.8055 -0.7137  2.2547
 1469SOL     OW 4361   2.861   2.958   1.109 -0.2282 -0.1739  0.7327
 1469SOL    HW1 4362   2.918   2.878   1.090  1.1912  0.7513  0.9118
 1469SOL    HW2 4363   2.816   2.946   1.198  0.6501 -0.4208  1.1609
 1470SOL     OW 4364   1.849   1.989   3.556 -0.1077  0.3025 -0.4112
 1470SOL    HW1 4365   1.874   1.962   3.649 -1.4852  0.3014 -0.0138
 1470SOL    HW2 4366   1.781   1.925   3.520 -0.8983  1.3106 -0.7511
 1471SOL     OW 4367   2.336   3.205   2.787  0.1326 -0.1702  0.1203
 1471SOL    HW1 4368   2.390   3.142   2.731  0.3571 -1.8574  2.1108
 1471SOL    HW2 4369   2.390   3.287   2.806  0.1961  0.2593 -1.7225
 1472SOL     OW 4370   3.257   2.112   0.883  0.3578 -0.1043  0.2254
 1472SOL    HW1 4371   3.280   2.128   0.979  0.2651 -1.5470  0.5194
 1472SOL    HW2 4372   3.260   2.014   0.864 -1.8048 -0.0502 -0.6939
 1473SOL     OW 4373   2.748   2.866   3.730  0.5687 -0.0721  0.0828
 1473SOL    HW1 4374   2.657   2.897   3.703 -0.2008 -1.4658  0.9576
 1473SOL    HW2 4375   2.769   2.901   3.822 -0.0298 -1.5293  0.7987
 1474SOL     OW 4376   0.710   3.464   1.411 -0.0339 -0.8027  0.5096
 1474SOL    HW1 4377   0.744   3.380   1.453  1.8353 -0.3955 -0.1109
 1474SOL    HW2 4378   0.756   3.543   1.451 -2.1667  0.0391  1.4864
 1475SOL     OW 4379   2.985   2.641   0.232 -0.4201  0.3835 -0.2748
 1475SOL    HW1 4380   2.947   2.726   0.268  3.6001  1.1241  2.9273
 1475SOL    HW2 4381   2.969   2.567   0.298 -1.4776 -0.7724 -1.7483
 1476SOL     OW 4382   2.993   2.642   2.975 -0.0267 -0.0936  0.1189
 1476SOL    HW1 4383   3.086   2.620   2.945 -0.1438  1.6888 -1.8287
 1476SOL    HW2 4384   2.989   2.640   3.075  1.7429 -1.4839  0.2207
 1477SOL     OW 4385   2.955   2.736   2.256  0.6467  0.0961 -0.9591
 1477SOL    HW1 4386   2.875   2.711   2.310  0.6541 -0.0811 -1.0288
 1477SOL    HW2 4387   2.932   2.730   2.159  0.9030 -0.4855 -0.9850
 1478SOL     OW 4388   1.222   0.041   1.440 -0.1826 -0.4909 -0.2073
 1478SOL    HW1 4389   1.217   0.097   1.357 -0.0038  0.8067  0.6276
 1478SOL    HW2 4390   1.317   0.037   1.472 -0.1794 -1.3672 -0.3083
 1479SOL     OW 4391   0.202   2.887   0.224 -0.4111  0.7454  0.1724
 1479SOL    HW1 4392   0.207   2.888   0.324  0.0303 -0.6216  0.1903
 1479SOL    HW2 4393   0.256   2.810   0.190  0.6020  2.0176 -1.1940
 1480SOL     OW 4394   2.690   2.914   1.373  0.2582  0.1934 -0.6803
 1480SOL    HW1 4395   2.597   2.890   1.345 -0.1402  0.2860  0.5334
 1480SOL    HW2 4396   2.699   2.905   1.472  1.2143  1.3067 -0.6439
 1481SOL     OW 4397   0.012   3.487   0.700  0.2970 -0.2002  0.3082
 1481SOL    HW1 4398  -0.053   3.506   0.773  0.8840  1.3572  0.4611
 1481SOL    HW2 4399   0.102   3.469   0.740  0.1661 -1.5119  0.0565
 1482SOL     OW 4400   3.083   2.841   1.954 -0.3715 -0.0458  0.1087
 1482SOL    HW1 4401   3.097   2.888   2.041 -1.8407 -1.7225  1.3200
 1482SOL    HW2 4402   3.138   2.885   1.883  3.3341 -0.5005  2.4569
 1483SOL     OW 4403   2.289   2.851   1.934 -0.3519  0.1255 -0.4642
 1483SOL    HW1 4404   2.383   2.866   1.967  0.2216  0.0848 -2.0201
 1483SOL    HW2 4405   2.233   2.815   2.009  1.0199 -0.4261  0.3362
 1484SOL     OW 4406   2.148   2.869   1.062  0.4678 -0.5503 -0.2455
 1484SOL    HW1 4407   2.193   2.818   0.990  0.6620 -0.6386 -0.0640
 1484SOL    HW2 4408   2.175   2.832   1.151 -0.6206 -1.1399 -0.1560
 1485SOL     OW 4409   2.695   2.992   3.034  0.3403  0.1460  0.0369
 1485SOL    HW1 4410   2.736   3.069   3.084  1.8089 -0.8724  0.4837
 1485SOL    HW2 4411   2.721   2.997   2.937  1.8418 -0.6396  0.3667
 1486SOL     OW 4412   2.749   1.838   1.212  0.1337 -0.0182 -0.2804
 1486SOL    HW1 4413   2.771   1.741   1.222 -2.1381 -0.6838 -1.1659
 1486SOL    HW2 4414   2.793   1.873   1.129  0.1534 -0.5523 -0.5009
 1487SOL     OW 4415   2.998   0.116   1.260  0.4301  0.0499 -0.1346
 1487SOL    HW1 4416   3.001   0.213   1.282 -2.1641  0.0533  0.5216
 1487SOL    HW2 4417   2.977   0.104   1.163  1.9269  0.1082 -0.4816
 1488SOL     OW 4418   3.391   1.918   1.631  0.2407  0.7124  0.0625
 1488SOL    HW1 4419   3.475   1.946   1.584  1.3131 -1.1238  0.7740
 1488SOL    HW2 4420   3.407   1.918   1.730 -0.8730  1.1352  0.2477
 1489SOL     OW 4421   0.097   2.949   3.352 -0.0133  0.3178 -0.3686
 1489SOL    HW1 4422   0.004   2.914   3.351  0.6703 -1.6489  0.6405
 1489SOL    HW2 4423   0.108   3.013   3.429 -0.3044 -0.1332  0.0518
 1490SOL     OW 4424   2.317   2.863   0.579 -0.1468  0.0803 -0.2686
 1490SOL    HW1 4425   2.394   2.924   0.560 -0.5320  0.9642  0.8783
 1490SOL    HW2 4426   2.247   2.875   0.508 -0.1544  0.8790 -0.1349
 1491SOL     OW 4427   1.569   0.732   0.871 -0.1000  0.4219  0.1070
 1491SOL    HW1 4428   1.496   0.669   0.848  0.2961  0.2653 -0.7704
 1491SOL    HW2 4429   1.557   0.765   0.964 -1.1067  0.1609  0.0746
 1492SOL     OW 4430   2.776   3.250   1.659  0.1483 -0.2736  0.0746
 1492SOL    HW1 4431   2.722   3.326   1.695  0.3476  0.0588 -0.3229
 1492SOL    HW2 4432   2.847   3.226   1.725  0.6747  0.4999 -0.1958
 1493SOL     OW 4433   2.110   2.848   0.048  0.2830 -0.3841  0.8128
 1493SOL    HW1 4434   2.022   2.806   0.073  0.0304 -0.7859 -0.6772
 1493SOL    HW2 4435   2.105   2.947   0.060 -1.4752  0.0032 -2.1889
 1494SOL     OW 4436   3.348   3.709   0.103  0.2477 -0.1415 -0.0380
 1494SOL    HW1 4437   3.261   3.758   0.100  1.3047  1.8033 -0.3350
 1494SOL    HW2 4438   3.342   3.628   0.044 -0.7178  1.0752 -1.7038
 1495SOL     OW 4439   1.499   0.108   0.412  0.0971 -0.1459 -0.6437
 1495SOL    HW1 4440   1.553   0.084   0.493  0.6445  0.6543 -0.7565
 1495SOL    HW2 4441   1.487   0.027   0.355 -0.1187 -0.6745  0.1242
 1496SOL     OW 4442   1.692   2.541   2.564 -0.4866 -0.1795  0.1343
 1496SOL    HW1 4443   1.778   2.495   2.587 -1.1456 -1.5716 -0.1225
 1496SOL    HW2 4444   1.616   2.496   2.611 -1.1580  0.6632 -0.1182
 1497SOL     OW 4445   3.562   3.052   1.079 -0.7221 -0.4246  0.1054
 1497SOL    HW1 4446   3.510   3.104   1.147 -0.5277 -0.7122  0.4841
 1497SOL    HW2 4447   3.595   3.113   1.007  1.1412  0.3575  1.5265
 1498SOL     OW 4448   0.617   3.074   3.533 -0.2552  0.4839  0.0837
 1498SOL    HW1 4449   0.559   3.093   3.454 -0.6869 -1.4985 -0.1170
 1498SOL    HW2 4450   0.564   3.089   3.617 -0.2965  0.9929 -0.0272
 1499SOL     OW 4451   3.218   1.688   0.452  0.2581  0.1696 -0.3971
 1499SOL    HW1 4452   3.281   1.765   0.444 -0.5603  1.0409  1.0183
 1499SOL    HW2 4453   3.236   1.622   0.379  5.0640 -1.3024  1.6966
 1500SOL     OW 4454   0.264   3.833   3.656 -0.1467  0.4230 -0.8366
 1500SOL    HW1 4455   0.311   3.889   3.725 -0.8239  1.2809 -1.0563
 1500SOL    HW2 4456   0.319   3.752   3.636  0.0683  0.1784  0.6849
 1501SOL     OW 4457   3.459   3.186   2.248 -0.6861 -0.0180  0.0751
 1501SOL    HW1 4458   3.472   3.090   2.272  1.1012  0.4226  1.0448
 1501SOL    HW2 4459   3.452   3.241   2.331 -1.4484  0.7438 -0.4667
 1502SOL     OW 4460   1.321   1.041   0.818  0.6615  0.0043 -0.6332
 1502SOL    HW1 4461   1.360   1.031   0.910  1.5060 -3.5095 -1.2108
 1502SOL    HW2 4462   1.224   1.017   0.820  0.2925  1.4296 -0.4543
 1503SOL     OW 4463   2.844   2.759   1.849  0.0326  0.5001 -0.2417
 1503SOL    HW1 4464   2.848   2.662   1.825 -0.6314  0.8738 -1.9954
 1503SOL    HW2 4465   2.936   2.795   1.857  0.3061  0.1690 -1.6096
 1504SOL     OW 4466   2.220   0.983   1.786 -0.2363 -0.2475 -0.3921
 1504SOL    HW1 4467   2.122   0.966   1.777  0.0049 -1.2775 -1.2911
 1504SOL    HW2 4468   2.262   0.979   1.695  0.7405 -0.5145  0.0657
 1505SOL     OW 4469   0.355   2.767   3.396  0.0113  0.3910 -0.0791
 1505SOL    HW1 4470   0.376   2.712   3.316 -0.0791 -1.3359  1.0328
 1505SOL    HW2 4471   0.257   2.787   3.399  0.0985  0.9144 -0.6665
 1506SOL     OW 4472   1.127   3.395   0.480  0.0204 -0.5619  0.4092
 1506SOL    HW1 4473   1.219   3.383   0.518  0.6826  0.1519 -0.9186
 1506SOL    HW2 4474   1.134   3.418   0.383 -1.5960 -1.3294  0.0809
 1507SOL     OW 4475   2.663   2.284   0.644  0.6529 -0.1652  0.8409
 1507SOL    HW1 4476   2.657   2.189   0.612  0.6751 -0.0456  0.4757
 1507SOL    HW2 4477   2.651   2.346   0.566  1.6591  0.1186  0.8956
 1508SOL     OW 4478   2.079   1.700   3.191 -0.1437 -0.0222  0.1454
 1508SOL    HW1 4479   2.153   1.708   3.124  0.3722 -1.7516  0.4623
 1508SOL    HW2 4480   2.103   1.751   3.274  0.5067 -0.2237  0.0867
 1509SOL     OW 4481   3.658   2.893   3.399 -0.2418  0.2510  0.2854
 1509SOL    HW1 4482   3.585   2.830   3.370  1.9101 -1.7454 -1.1959
 1509SOL    HW2 4483   3.710   2.851   3.473  1.9327 -0.3732 -1.4782
 1510SOL     OW 4484   1.933   2.847   2.714 -0.4835 -0.1448 -0.5822
 1510SOL    HW1 4485   1.989   2.767   2.691  1.0267  0.5751  0.4483
 1510SOL    HW2 4486   1.930   2.858   2.813 -0.0300  1.5214 -0.7317
 1511SOL     OW 4487   2.334   3.413   3.123 -0.4771  0.0258 -0.3550
 1511SOL    HW1 4488   2.291   3.374   3.205 -2.8988  0.5637 -1.2734
 1511SOL    HW2 4489   2.381   3.497   3.147 -1.7247  0.5366  0.4287
 1512SOL     OW 4490   2.324   2.186   1.848 -0.1244  0.2872  0.5585
 1512SOL    HW1 4491   2.275   2.147   1.926 -0.5771  0.0879  0.1767
 1512SOL    HW2 4492   2.308   2.285   1.845  1.2241  0.5677  1.6709
 1513SOL     OW 4493   2.851   1.389   1.463  0.5788 -0.4182 -0.4488
 1513SOL    HW1 4494   2.751   1.388   1.466  0.5184  1.3037 -0.8220
 1513SOL    HW2 4495   2.886   1.408   1.555  0.5387 -0.4097 -0.4350
 1514SOL     OW 4496   2.874   3.626   3.048 -0.1486 -0.2557 -0.1685
 1514SOL    HW1 4497   2.862   3.535   3.008 -0.7561 -0.9423  1.4612
 1514SOL    HW2 4498   2.789   3.654   3.093  1.2208 -0.8647  3.1417
 1515SOL     OW 4499   3.635   3.297   2.685  0.2258 -0.3316 -0.1490
 1515SOL    HW1 4500   3.704   3.337   2.746 -0.6971 -0.6233  1.1274
 1515SOL    HW2 4501   3.578   3.370   2.648  0.2343 -0.2193  0.0536
 1516SOL     OW 4502   3.596   2.260   1.930  0.2396 -0.1554 -0.2527
 1516SOL    HW1 4503   3.511   2.257   1.877  0.8112 -0.3110 -1.1703
 1516SOL    HW2 4504   3.634   2.352   1.924 -0.5898  0.3250  1.3442
 1517SOL     OW 4505   2.902   2.022   2.682 -0.3452 -0.3371  0.1163
 1517SOL    HW1 4506   2.927   2.004   2.587 -1.0741 -2.7131  0.3121
 1517SOL    HW2 4507   2.982   2.006   2.741 -0.4445 -0.9744  0.0851
 1518SOL     OW 4508   1.557   0.145   3.075 -0.3246  0.2450 -0.1634
 1518SOL    HW1 4509   1.471   0.146   3.024 -1.2602  0.6888  1.3463
 1518SOL    HW2 4510   1.612   0.067   3.045 -1.4378 -0.3152 -0.8552
 1519SOL     OW 4511   2.756   3.030   0.131 -0.4018 -0.0173  0.4532
 1519SOL    HW1 4512   2.703   3.066   0.207  0.9951 -0.2741  1.6008
 1519SOL    HW2 4513   2.797   3.106   0.080 -1.1588  0.1487  0.0883
 1520SOL     OW 4514   2.747   2.398   2.557  0.4196  0.0918  0.0885
 1520SOL    HW1 4515   2.727   2.309   2.598 -0.1207 -0.2790 -0.9363
 1520SOL    HW2 4516   2.785   2.385   2.466  0.5681  0.9107  0.0230
 1521SOL     OW 4517   1.892   0.210   0.081 -0.2181 -0.8632 -0.1732
 1521SOL    HW1 4518   1.893   0.301   0.123 -0.6032 -1.3592  0.9582
 1521SOL    HW2 4519   1.808   0.163   0.105 -0.2324 -1.3546 -1.1414
 1522SOL     OW 4520   1.130   0.599   3.041 -0.0538  0.3134  0.7555
 1522SOL    HW1 4521   1.099   0.676   2.985  0.7721  0.7685  0.9130
 1522SOL    HW2 4522   1.122   0.624   3.138  1.0516  0.5471  0.7981
 1523SOL     OW 4523   3.356   3.168   3.412  0.5472  0.6505  0.2212
 1523SOL    HW1 4524   3.304   3.213   3.340  0.0614  1.4884  1.0770
 1523SOL    HW2 4525   3.306   3.087   3.444 -0.5228  1.7329  1.3871
 1524SOL     OW 4526   2.136   2.826   0.371  0.1676  0.1098 -0.0177
 1524SOL    HW1 4527   2.194   2.848   0.293  1.2918  0.5458  0.9028
 1524SOL    HW2 4528   2.048   2.792   0.339  0.1359  1.4471 -1.4757
 1525SOL     OW 4529   0.627   3.323   1.756  0.3314  0.0687 -0.0608
 1525SOL    HW1 4530   0.716   3.279   1.769 -0.0281 -0.4683  0.7198
 1525SOL    HW2 4531   0.559   3.276   1.812 -0.2242  1.1522  0.2139
 1526SOL     OW 4532   1.482   1.246   3.010 -0.1309  0.2753 -0.0961
 1526SOL    HW1 4533   1.508   1.201   3.096  1.4602 -1.5288 -1.4287
 1526SOL    HW2 4534   1.545   1.323   2.993  0.4842 -0.2622 -0.3122
 1527SOL     OW 4535   3.337   3.543   3.264  0.4276 -0.3704 -0.2216
 1527SOL    HW1 4536   3.381   3.557   3.353  1.1738 -0.6174 -0.5422
 1527SOL    HW2 4537   3.262   3.608   3.253 -0.2181 -0.8904  0.9384
 1528SOL     OW 4538   2.256   0.020   2.134 -0.2555 -0.1678 -0.1019
 1528SOL    HW1 4539   2.232   0.048   2.041 -1.3918  1.6028  0.6786
 1528SOL    HW2 4540   2.350   0.047   2.153 -0.9092  2.1564  0.1861
 1529SOL     OW 4541   1.912   3.098   1.333  0.5585 -0.7006 -0.5589
 1529SOL    HW1 4542   1.953   3.119   1.421  1.9832  0.7603 -1.5263
 1529SOL    HW2 4543   1.893   2.999   1.327  0.3155 -0.8000  1.3877
 1530SOL     OW 4544   2.785   1.336   3.052  0.0687  0.7797  0.3104
 1530SOL    HW1 4545   2.882   1.324   3.073  0.1799 -0.1613 -0.6714
 1530SOL    HW2 4546   2.741   1.247   3.039 -1.4741  1.0461  2.8901
 1531SOL     OW 4547   0.263   2.290   2.986 -0.4405 -0.6598  0.1907
 1531SOL    HW1 4548   0.303   2.317   3.073  1.0290 -1.3608 -0.2281
 1531SOL    HW2 4549   0.281   2.361   2.917  0.1414 -0.9965 -0.0097
 1532SOL     OW 4550   2.900   1.339   1.077  0.9901 -0.0440 -0.0932
 1532SOL    HW1 4551   2.898   1.244   1.045 -1.5857  0.3147 -1.2687
 1532SOL    HW2 4552   2.910   1.401   0.999  1.1530  0.7188  0.5104
 1533SOL     OW 4553   3.149   0.844   2.079  0.1728 -0.0882  0.3992
 1533SOL    HW1 4554   3.192   0.756   2.058  1.4722  0.8665 -1.1479
 1533SOL    HW2 4555   3.080   0.864   2.010 -0.8515 -0.3142  1.3186
 1534SOL     OW 4556   1.488   2.493   2.246  0.2231  0.3127 -0.0500
 1534SOL    HW1 4557   1.561   2.439   2.288 -1.5397 -0.3865  2.3418
 1534SOL    HW2 4558   1.471   2.575   2.301 -0.7793  0.4527 -0.5453
 1535SOL     OW 4559   0.345   2.529   2.530 -0.3526 -0.2433 -0.0094
 1535SOL    HW1 4560   0.340   2.622   2.493  0.4682  0.5635  1.8167
 1535SOL    HW2 4561   0.264   2.478   2.500 -0.2595  0.6657 -1.9876
 1536SOL     OW 4562   0.427   3.546   1.339 -0.0725 -0.5370 -0.0630
 1536SOL    HW1 4563   0.413   3.623   1.278  0.1764 -0.4770 -0.0442
 1536SOL    HW2 4564   0.525   3.528   1.349 -0.0921 -0.2201  0.7232
 1537SOL     OW 4565   2.628   2.436   3.704  0.1022 -1.0102 -0.2859
 1537SOL    HW1 4566   2.654   2.457   3.798 -0.3369 -1.9549  0.0650
 1537SOL    HW2 4567   2.544   2.381   3.704 -1.3782  1.1385 -1.3413
 1538SOL     OW 4568   3.548   2.960   1.565  0.3375  0.0871 -0.2273
 1538SOL    HW1 4569   3.493   3.043   1.575  0.6528  0.1687  0.9597
 1538SOL    HW2 4570   3.645   2.983   1.577  0.4065 -0.4742  0.3492
 1539SOL     OW 4571   3.023   3.433   0.071 -0.4001  0.2379  0.6784
 1539SOL    HW1 4572   2.970   3.513   0.098  1.3403  1.1260  1.6033
 1539SOL    HW2 4573   3.104   3.424   0.129  1.3988 -0.0661 -1.6948
 1540SOL     OW 4574   2.745   2.953   2.618 -0.3622  0.2613  0.0929
 1540SOL    HW1 4575   2.716   2.861   2.642  1.9361 -1.6556 -3.6103
 1540SOL    HW2 4576   2.820   2.982   2.677  1.4315 -1.9492 -0.9426
 1541SOL     OW 4577   3.416   2.750   3.331 -0.1728  0.0909 -0.1438
 1541SOL    HW1 4578   3.355   2.827   3.319 -0.9811 -0.4198  0.5558
 1541SOL    HW2 4579   3.366   2.673   3.370  0.0883 -1.5380 -2.7748
 1542SOL     OW 4580   2.922   3.145   2.721 -0.8550  0.7055 -0.1434
 1542SOL    HW1 4581   2.950   3.145   2.625 -0.0423  3.0140  0.0255
 1542SOL    HW2 4582   2.998   3.113   2.778 -0.2119  2.3161 -0.0605
 1543SOL     OW 4583   3.741   3.276   3.108  0.4253 -0.0370 -0.1804
 1543SOL    HW1 4584   3.654   3.312   3.072  0.7652  0.2447 -0.7402
 1543SOL    HW2 4585   3.727   3.242   3.201 -0.5189 -0.9485 -0.6447
 1544SOL     OW 4586   2.245   2.205   0.154  0.0535 -0.0966 -0.3400
 1544SOL    HW1 4587   2.276   2.175   0.244 -0.4570 -0.2029 -0.1939
 1544SOL    HW2 4588   2.145   2.203   0.151  0.0689 -2.2431 -1.6086
 1545SOL     OW 4589   0.591   1.623   1.159  0.2828 -0.0868 -0.2906
 1545SOL    HW1 4590   0.601   1.526   1.182  1.2957  0.4736  1.9439
 1545SOL    HW2 4591   0.501   1.655   1.188  0.0258 -0.3106 -0.8393
 1546SOL     OW 4592   1.990   2.591   3.213 -0.5758  0.4740  0.2942
 1546SOL    HW1 4593   1.918   2.610   3.279 -0.0646 -0.9493  1.3185
 1546SOL    HW2 4594   2.065   2.655   3.226 -0.5413  0.2986  1.0266
 1547SOL     OW 4595   1.392   0.056   1.927  0.3692  0.4313 -0.1777
 1547SOL    HW1 4596   1.344   0.101   2.002 -0.5294 -1.1712  0.2518
 1547SOL    HW2 4597   1.482   0.024   1.959 -1.2312 -3.1301  1.3512
 1548SOL     OW 4598   0.576   3.279   3.180 -0.1757 -0.1660 -0.4088
 1548SOL    HW1 4599   0.547   3.183   3.182  1.7042 -0.7793 -0.5418
 1548SOL    HW2 4600   0.636   3.294   3.102 -0.8977  1.2866 -0.7156
 1549SOL     OW 4601   0.117   2.675   2.338  0.4539  0.6193  0.0244
 1549SOL    HW1 4602   0.207   2.717   2.353  0.4953  0.9091 -1.0030
 1549SOL    HW2 4603   0.111   2.642   2.244  0.4968 -1.9142  0.8350
 1550SOL     OW 4604   2.468   2.232   3.379  0.1697  0.2158  0.4034
 1550SOL    HW1 4605   2.476   2.144   3.333 -0.9938 -0.1156  0.8130
 1550SOL    HW2 4606   2.554   2.253   3.427  1.6925  0.8712 -2.3705
 1551SOL     OW 4607   3.167   3.469   0.772 -0.0855  0.0068 -0.3181
 1551SOL    HW1 4608   3.106   3.390   0.765  1.1228 -0.9698 -0.1085
 1551SOL    HW2 4609   3.190   3.501   0.680  0.4409 -0.7051 -0.4434
 1552SOL     OW 4610   3.492   3.431   3.066 -0.4056  0.2261  0.7244
 1552SOL    HW1 4611   3.452   3.349   3.025  0.0477 -0.0611  0.8490
 1552SOL    HW2 4612   3.424   3.477   3.123  0.0964 -1.5884  2.9179
 1553SOL     OW 4613   2.909   2.310   3.807  0.1372  0.3656  0.0125
 1553SOL    HW1 4614   2.819   2.339   3.840 -0.3681 -1.9010  0.7964
 1553SOL    HW2 4615   2.898   2.231   3.746  1.5154  0.9622 -1.0680
 1554SOL     OW 4616  -0.011   2.333   3.035 -0.5726  0.0771  0.5072
 1554SOL    HW1 4617   0.088   2.340   3.037 -0.5578 -0.2375  1.2224
 1554SOL    HW2 4618  -0.040   2.294   2.948 -0.2538  2.5630 -0.7927
 1555SOL     OW 4619   2.214   3.558   2.767 -0.2370  0.6975  0.1321
 1555SOL    HW1 4620   2.312   3.540   2.779 -0.6598 -1.8229  0.2369
 1555SOL    HW2 4621   2.169   3.563   2.856 -0.3670  0.8345  0.0592
 1556SOL     OW 4622   1.570   0.258   3.665  0.1098  0.1867  0.3266
 1556SOL    HW1 4623   1.473   0.244   3.647  0.0555 -1.5163  1.6266
 1556SOL    HW2 4624   1.586   0.354   3.692 -1.4013  0.2272  1.1714
 1557SOL     OW 4625   2.511   2.076   2.082  0.0322  0.0848  0.5811
 1557SOL    HW1 4626   2.413   2.054   2.086  0.2434 -1.0837 -0.2518
 1557SOL    HW2 4627   2.562   1.996   2.049  1.5810 -0.2201  3.3782
 1558SOL     OW 4628   2.992   1.121   3.776  0.1179 -0.0807 -0.2617
 1558SOL    HW1 4629   2.932   1.041   3.774  0.5922 -0.4510  0.1427
 1558SOL    HW2 4630   2.943   1.199   3.813 -0.5929  0.0318 -1.3786
 1559SOL     OW 4631   3.237   2.116   3.503  0.0994 -0.0734 -0.1129
 1559SOL    HW1 4632   3.250   2.020   3.479 -1.4743 -0.3086 -0.1080
 1559SOL    HW2 4633   3.318   2.168   3.476  1.1136 -1.4443  0.1945
 1560SOL     OW 4634   3.029   2.091   1.333  0.1841 -0.0043 -0.6841
 1560SOL    HW1 4635   3.018   2.100   1.234  0.7480  1.3681 -0.6452
 1560SOL    HW2 4636   3.104   2.029   1.352  0.8716  0.6633 -1.1511
 1561SOL     OW 4637   0.441   3.053   3.335  0.8491  0.1458  0.0047
 1561SOL    HW1 4638   0.402   2.963   3.354  1.6474  0.0722  1.4337
 1561SOL    HW2 4639   0.370   3.123   3.348  0.5467 -0.1823  0.1449
 1562SOL     OW 4640   1.330   0.342   3.278 -0.3973 -0.4773  0.4891
 1562SOL    HW1 4641   1.401   0.329   3.208  0.2854 -0.5605  1.1898
 1562SOL    HW2 4642   1.373   0.357   3.367 -1.2616 -1.1054  1.0290
 1563SOL     OW 4643   0.361   3.624   3.481 -0.3315  0.6297 -0.3305
 1563SOL    HW1 4644   0.271   3.659   3.456  0.0686  1.3469 -0.7973
 1563SOL    HW2 4645   0.371   3.531   3.446 -1.1382  0.2924  0.3057
 1564SOL     OW 4646   3.369   3.402   1.791 -0.2841 -0.3364  0.2106
 1564SOL    HW1 4647   3.461   3.428   1.820 -0.1792  0.3168 -0.6409
 1564SOL    HW2 4648   3.302   3.443   1.853 -0.0695  1.0662 -0.4418
 1565SOL     OW 4649   2.841   3.673   2.367 -0.2688  0.1247  0.0787
 1565SOL    HW1 4650   2.820   3.581   2.398 -0.2059 -0.0623 -0.4286
 1565SOL    HW2 4651   2.833   3.737   2.444 -0.2086 -0.3161  0.4541
 1566SOL     OW 4652  -0.020   2.985   2.946  0.6393 -0.2730  0.1836
 1566SOL    HW1 4653   0.013   2.893   2.969  2.7179  0.2345 -0.5721
 1566SOL    HW2 4654   0.048   3.053   2.977 -0.2641  0.9236 -0.4031
 1567SOL     OW 4655   1.433   2.688   3.718  0.0618  0.0180 -0.0625
 1567SOL    HW1 4656   1.340   2.694   3.682  0.2905  0.1271 -0.6511
 1567SOL    HW2 4657   1.489   2.759   3.675 -0.1891  1.7038  2.1728
 1568SOL     OW 4658   3.362   3.165   2.690  0.5544 -0.4919 -0.0543
 1568SOL    HW1 4659   3.441   3.216   2.656  1.1864 -1.5151 -0.1718
 1568SOL    HW2 4660   3.389   3.071   2.711 -0.5168 -0.7193  0.4141
 1569SOL     OW 4661   2.373   2.633   2.462 -0.4348 -0.0735  0.1211
 1569SOL    HW1 4662   2.292   2.587   2.497  0.7399 -1.9212  0.5993
 1569SOL    HW2 4663   2.378   2.621   2.363 -1.3213  1.0566 -0.0728
 1570SOL     OW 4664   3.308   0.274   2.306 -0.2516 -0.5650 -0.1433
 1570SOL    HW1 4665   3.309   0.368   2.342  1.3796 -0.8867  0.7751
 1570SOL    HW2 4666   3.219   0.232   2.325 -0.8928  0.6835 -0.2844
 1571SOL     OW 4667   2.318   2.869   2.580  0.0985  0.1984  0.0039
 1571SOL    HW1 4668   2.236   2.839   2.629 -0.4596  0.0434 -0.9993
 1571SOL    HW2 4669   2.356   2.792   2.528  0.5302  0.4191 -0.0062
 1572SOL     OW 4670   2.618   1.645   1.652 -0.0461  0.1248  0.4090
 1572SOL    HW1 4671   2.635   1.723   1.592 -1.5001 -0.5043 -0.9180
 1572SOL    HW2 4672   2.693   1.636   1.717  0.8463  1.7659 -0.3144
 1573SOL     OW 4673   2.840   2.297   2.311 -0.1812  0.1783 -0.3013
 1573SOL    HW1 4674   2.848   2.219   2.248  1.4046 -1.0229  1.2889
 1573SOL    HW2 4675   2.921   2.355   2.302  1.1430 -1.1752  2.0409
 1574SOL     OW 4676   0.084   2.724   2.979  0.3235  0.2675  0.0582
 1574SOL    HW1 4677   0.175   2.712   2.940  0.6244  0.3735  0.7029
 1574SOL    HW2 4678   0.015   2.692   2.915  0.7428  1.3103 -0.9409
 1575SOL     OW 4679   3.422   3.392   2.470 -0.3055  0.1283 -0.1927
 1575SOL    HW1 4680   3.350   3.440   2.521 -0.5749 -1.1414  0.6540
 1575SOL    HW2 4681   3.501   3.453   2.460 -1.1871  1.2651 -0.4539
 1576SOL     OW 4682   2.066   2.332   3.227 -0.3500  0.5003 -0.5304
 1576SOL    HW1 4683   2.041   2.421   3.189 -1.0058  0.6774  0.2891
 1576SOL    HW2 4684   2.121   2.346   3.309 -1.6998  0.1972  0.4611
 1577SOL     OW 4685   3.379   2.659   1.956 -0.1310  0.3037  0.1970
 1577SOL    HW1 4686   3.391   2.721   1.879 -1.2183 -0.2458 -0.4546
 1577SOL    HW2 4687   3.468   2.630   1.991  0.3760  1.2033 -0.3128
 1578SOL     OW 4688   0.103   2.585   3.218  0.2436 -0.5464  0.1742
 1578SOL    HW1 4689   0.060   2.500   3.186 -1.7553 -0.4171  2.2221
 1578SOL    HW2 4690   0.107   2.651   3.143  0.6318 -1.9827 -1.1146
 1579SOL     OW 4691   3.657   3.162   3.363  0.2509 -0.4281  0.0989
 1579SOL    HW1 4692   3.683   3.067   3.346 -0.0916 -0.1091 -2.6946
 1579SOL    HW2 4693   3.560   3.167   3.383  0.1507 -0.6182 -0.3343
 1580SOL     OW 4694   3.708   2.010   2.933 -0.0066 -0.0614  0.1901
 1580SOL    HW1 4695   3.703   1.999   3.032  1.7480  2.2769  0.6228
 1580SOL    HW2 4696   3.771   1.942   2.896 -1.2748 -1.4727  0.5061
 1581SOL     OW 4697   2.585   3.472   2.281  0.2685  0.6852  0.1892
 1581SOL    HW1 4698   2.568   3.388   2.331 -1.8682  0.8751 -0.1274
 1581SOL    HW2 4699   2.502   3.528   2.280  1.0995  1.9701 -1.1495
 1582SOL     OW 4700   3.068   2.395   2.161 -0.2351  0.2314 -0.5832
 1582SOL    HW1 4701   3.029   2.386   2.070  1.0590  0.1255 -1.1593
 1582SOL    HW2 4702   3.099   2.489   2.175  0.6404 -0.0230 -0.7280
 1583SOL     OW 4703   1.180   3.606   3.086  0.2798  0.3058 -0.4454
 1583SOL    HW1 4704   1.269   3.626   3.126  0.2875 -0.5415 -0.0144
 1583SOL    HW2 4705   1.120   3.685   3.096  0.3720  0.2059  1.0064
 1584SOL     OW 4706   3.655   2.611   1.311 -0.5046 -0.2591 -0.2227
 1584SOL    HW1 4707   3.640   2.587   1.407 -1.1657  0.3443 -0.1718
 1584SOL    HW2 4708   3.581   2.671   1.279 -1.1914 -1.7756 -1.5920
 1585SOL     OW 4709   3.748   2.203   1.013  0.0496  0.3583 -0.0592
 1585SOL    HW1 4710   3.761   2.298   1.041  0.8634  0.2729 -0.1329
 1585SOL    HW2 4711   3.664   2.196   0.958 -0.9337  0.7301  1.3181
 1586SOL     OW 4712   2.833   0.125   3.502 -0.1029 -0.2669 -0.0167
 1586SOL    HW1 4713   2.797   0.032   3.505 -0.5839 -0.1390 -1.1703
 1586SOL    HW2 4714   2.774   0.183   3.446  0.3576  0.6669  0.4205
 1587SOL     OW 4715   3.033   3.461   0.427  0.4402  0.1625 -0.1046
 1587SOL    HW1 4716   3.082   3.436   0.344 -0.2851  1.3647 -0.9183
 1587SOL    HW2 4717   3.097   3.503   0.492  0.6437  1.1551 -0.9152
 1588SOL     OW 4718   2.520   2.012   0.990 -0.0830 -0.1984 -0.2883
 1588SOL    HW1 4719   2.615   1.991   1.014 -0.0286 -0.1949 -0.4952
 1588SOL    HW2 4720   2.490   1.949   0.918 -0.0150  0.2348 -0.7059
 1589SOL     OW 4721   2.754   1.050   2.752  0.1650 -0.3637  0.2532
 1589SOL    HW1 4722   2.748   0.958   2.714  1.1050 -0.3818  0.1264
 1589SOL    HW2 4723   2.844   1.064   2.792  0.8737  1.2625 -1.7399
 1590SOL     OW 4724   2.782   2.389   1.501 -0.2561  0.6178  0.0115
 1590SOL    HW1 4725   2.760   2.375   1.404  0.6431 -0.0248 -0.1209
 1590SOL    HW2 4726   2.755   2.481   1.529  2.3812  2.0576 -1.7373
 1591SOL     OW 4727   2.405   2.240   3.777  0.0969 -0.0314  0.2463
 1591SOL    HW1 4728   2.350   2.219   3.858 -1.7272  1.0652 -0.6405
 1591SOL    HW2 4729   2.400   2.163   3.713  1.2667 -0.7585  0.9987
 1592SOL     OW 4730   2.270   2.567   2.844 -0.2048 -0.6401 -0.6151
 1592SOL    HW1 4731   2.247   2.470   2.844  0.2151 -0.7421 -0.8858
 1592SOL    HW2 4732   2.347   2.583   2.906 -1.7453 -0.1056  1.2798
 1593SOL     OW 4733   0.473   1.608   2.713  0.8567  0.1000  0.6107
 1593SOL    HW1 4734   0.423   1.575   2.793 -0.4069 -0.4582 -0.3720
 1593SOL    HW2 4735   0.483   1.534   2.647  1.5076  0.6591  0.0622
 1594SOL     OW 4736   2.237   1.166   2.019 -0.1827 -0.4976  0.0820
 1594SOL    HW1 4737   2.306   1.235   2.000  0.8087 -1.6130 -0.4501
 1594SOL    HW2 4738   2.225   1.107   1.939 -2.5765  0.3431 -0.2580
 1595SOL     OW 4739   2.979   3.527   3.396  0.0116  0.3220 -0.2895
 1595SOL    HW1 4740   3.027   3.521   3.484  1.1103  1.2893 -0.8063
 1595SOL    HW2 4741   3.036   3.575   3.330 -1.0502  0.1235 -1.3783
 1596SOL     OW 4742   2.480   3.059   2.637 -0.0632  0.0281  0.1428
 1596SOL    HW1 4743   2.572   3.019   2.638 -0.2325 -0.3747 -0.2327
 1596SOL    HW2 4744   2.413   2.989   2.614 -0.3240  0.5820 -0.8675
 1597SOL     OW 4745   0.545   2.371   2.428  0.4467  0.8602  0.3532
 1597SOL    HW1 4746   0.458   2.417   2.447 -1.0440 -1.9390  0.7687
 1597SOL    HW2 4747   0.605   2.379   2.507  0.5345  2.6318  0.1439
 1598SOL     OW 4748   3.748   3.041   2.688  0.4345  0.1440 -0.2202
 1598SOL    HW1 4749   3.806   3.025   2.768  1.8652  1.3597 -0.9466
 1598SOL    HW2 4750   3.709   3.133   2.694 -0.9491 -0.4409 -0.0473
 1599SOL     OW 4751   3.496   2.940   2.753 -0.7299 -0.1381 -0.1514
 1599SOL    HW1 4752   3.585   2.982   2.735 -0.6230  1.1649  2.8694
 1599SOL    HW2 4753   3.502   2.841   2.741  1.2264 -0.1167  0.3227
 1600SOL     OW 4754   3.761   2.624   2.536 -0.0095  0.3131 -0.4545
 1600SOL    HW1 4755   3.676   2.582   2.506 -0.3818  0.6390  0.1275
 1600SOL    HW2 4756   3.825   2.628   2.459 -0.8521  0.9261 -1.1487
 1601SOL     OW 4757   1.787   2.451   1.144  0.1376  0.1504  0.5454
 1601SOL    HW1 4758   1.811   2.363   1.104  1.6006  0.3732  0.8647
 1601SOL    HW2 4759   1.689   2.455   1.159 -0.1728 -0.7637 -1.0174
 1602SOL     OW 4760   3.523   2.922   2.301  0.1991 -0.3103  0.2797
 1602SOL    HW1 4761   3.611   2.920   2.348  0.5646 -1.2183 -0.4099
 1602SOL    HW2 4762   3.468   2.843   2.330 -0.3397  0.1876  0.6195
 1603SOL     OW 4763   3.672   3.561   2.442  0.1142  0.1349  0.1085
 1603SOL    HW1 4764   3.707   3.623   2.512 -1.3731  0.9700  0.1691
 1603SOL    HW2 4765   3.697   3.595   2.351 -0.7164  0.8754  0.1404
 1604SOL     OW 4766   1.128   0.806   2.863 -0.5768  0.4658 -0.5462
 1604SOL    HW1 4767   1.176   0.769   2.784  0.1563 -0.2196  0.1961
 1604SOL    HW2 4768   1.117   0.905   2.852  1.6573  0.7880 -0.4360
 1605SOL     OW 4769   0.765   3.675   0.118  0.1208 -0.3090  0.3723
 1605SOL    HW1 4770   0.784   3.707   0.211 -1.3612  0.2469  0.5177
 1605SOL    HW2 4771   0.692   3.607   0.121  0.5975 -0.8587 -0.3236
 1606SOL     OW 4772   0.805   1.502   2.123 -0.7020 -0.0025  0.0709
 1606SOL    HW1 4773   0.852   1.505   2.035 -0.8956  0.0167 -0.0338
 1606SOL    HW2 4774   0.868   1.526   2.197 -0.5404 -0.0171 -0.0640
 1607SOL     OW 4775   3.221   2.534   3.140 -0.2374 -0.0198  0.5483
 1607SOL    HW1 4776   3.248   2.575   3.053  0.4854  0.5144  1.0055
 1607SOL    HW2 4777   3.303   2.506   3.190 -0.6707 -0.7566  0.8491
 1608SOL     OW 4778   2.398   3.260   1.437  0.3238  0.1707 -0.0006
 1608SOL    HW1 4779   2.428   3.192   1.504  0.3929 -1.3379 -1.4900
 1608SOL    HW2 4780   2.456   3.256   1.356 -0.2182  1.4150 -0.4824
 1609SOL     OW 4781   3.289   1.678   2.280  0.2441 -0.4634 -0.2739
 1609SOL    HW1 4782   3.314   1.594   2.232 -0.2725  0.1321 -1.6284
 1609SOL    HW2 4783   3.190   1.685   2.286  0.2509  0.5473 -1.1183
 1610SOL     OW 4784   2.417   3.154   3.765 -0.1291 -0.4470  0.2866
 1610SOL    HW1 4785   2.458   3.063   3.758  1.0905  0.2038 -3.0944
 1610SOL    HW2 4786   2.479   3.215   3.813  0.0666 -0.8759  0.5877
 1611SOL     OW 4787   3.744   2.899   2.456 -0.4147 -0.0745  0.3693
 1611SOL    HW1 4788   3.762   2.960   2.533 -0.3950 -0.2360  0.4928
 1611SOL    HW2 4789   3.766   2.805   2.482 -1.0801 -0.2301  0.4056
 1612SOL     OW 4790   1.937   3.780   2.909 -0.0112 -0.1042 -0.7534
 1612SOL    HW1 4791   1.869   3.719   2.866 -0.9571  0.1492  0.3213
 1612SOL    HW2 4792   2.006   3.725   2.955 -1.6533 -0.4776  1.4593
 1613SOL     OW 4793   2.203   3.211   1.975 -0.5603 -1.0242 -0.2016
 1613SOL    HW1 4794   2.207   3.153   1.893 -0.5859 -0.0147 -0.9302
 1613SOL    HW2 4795   2.229   3.157   2.055 -0.7088 -2.0759 -0.8438
 1614SOL     OW 4796   3.729   2.256   2.803  0.3687  0.1518  0.3049
 1614SOL    HW1 4797   3.768   2.245   2.712  2.1334  0.6709  0.9621
 1614SOL    HW2 4798   3.698   2.167   2.837 -0.5012 -0.0131 -0.8625
 1615SOL     OW 4799   3.207   3.620   1.940  0.5403  0.5911  0.1578
 1615SOL    HW1 4800   3.259   3.686   1.885 -0.3086  0.2846 -1.0685
 1615SOL    HW2 4801   3.115   3.611   1.902  0.1877 -0.2618  1.1607
 1616SOL     OW 4802   3.696   0.846   2.468  0.0443  0.0593 -0.0278
 1616SOL    HW1 4803   3.745   0.851   2.381  0.7708  1.2033  0.4136
 1616SOL    HW2 4804   3.619   0.783   2.460 -0.1749  0.4796 -1.6399
 1617SOL     OW 4805   0.692   2.144   3.061  0.0565 -0.6197  0.5734
 1617SOL    HW1 4806   0.645   2.057   3.072  1.4846 -1.4977  0.0880
 1617SOL    HW2 4807   0.787   2.127   3.034  1.2249  0.9876  3.2468
 1618SOL     OW 4808   2.115   0.481   3.214 -0.1753  0.5633  0.0430
 1618SOL    HW1 4809   2.093   0.443   3.123 -1.9590 -0.9714  1.0403
 1618SOL    HW2 4810   2.049   0.553   3.236  0.0073  0.6563  0.2785
 1619SOL     OW 4811   2.940   2.857   2.847 -0.1753 -0.8785  0.1913
 1619SOL    HW1 4812   3.027   2.907   2.846 -0.7980  0.3331  1.9034
 1619SOL    HW2 4813   2.946   2.782   2.914  0.0397 -1.7976 -0.8244
 1620SOL     OW 4814   3.777   2.527   0.776  0.3022 -0.2122  0.6665
 1620SOL    HW1 4815   3.679   2.510   0.781  0.1044  0.4322 -0.6023
 1620SOL    HW2 4816   3.815   2.480   0.696  0.9836 -0.2841  1.0261
 1621SOL     OW 4817   3.139   1.735   3.448 -0.0163 -0.0120 -0.1508
 1621SOL    HW1 4818   3.193   1.659   3.485 -1.2990 -1.7631 -1.6449
 1621SOL    HW2 4819   3.061   1.753   3.509  0.6072  0.5162  0.5018
 1622SOL     OW 4820   1.864   2.866   3.007 -0.0776  0.3203 -0.4940
 1622SOL    HW1 4821   1.882   2.946   3.064 -0.4294 -1.3625  2.1541
 1622SOL    HW2 4822   1.949   2.815   2.994  0.1300  1.0008 -2.1142
 1623SOL     OW 4823   3.617   0.156   3.433  0.5516 -0.0748  0.5074
 1623SOL    HW1 4824   3.714   0.172   3.449  0.1921  1.9089  1.0291
 1623SOL    HW2 4825   3.568   0.155   3.521  0.2413 -2.5672  0.3868
 1624SOL     OW 4826   2.961   3.369   2.944 -0.4014  0.4874  0.7151
 1624SOL    HW1 4827   2.960   3.318   2.859 -0.6748  2.2566 -0.4025
 1624SOL    HW2 4828   3.050   3.360   2.988 -0.6309 -1.3636  0.8676
 1625SOL     OW 4829   2.887   1.877   1.620 -0.0106  0.3641 -0.5349
 1625SOL    HW1 4830   2.920   1.970   1.636  0.3439  0.0598  0.5566
 1625SOL    HW2 4831   2.956   1.825   1.571  1.2332 -0.2812  1.7759
 1626SOL     OW 4832   3.409   1.923   2.537 -0.2398 -0.3069  0.3799
 1626SOL    HW1 4833   3.325   1.871   2.551  0.1709 -0.8168  1.0330
 1626SOL    HW2 4834   3.471   1.870   2.479 -0.6742  0.4175 -0.7745
 1627SOL     OW 4835   2.325   3.550   3.618  0.4731 -0.1102  0.4046
 1627SOL    HW1 4836   2.237   3.565   3.575  0.9125 -1.0928 -0.8939
 1627SOL    HW2 4837   2.316   3.560   3.717 -1.0945 -0.2532  0.2950
 1628SOL     OW 4838   1.567   2.248   3.585 -0.5906  0.3426  0.5975
 1628SOL    HW1 4839   1.565   2.152   3.610 -1.1265  0.5963  1.5849
 1628SOL    HW2 4840   1.622   2.260   3.502  0.0553 -0.7094  0.8578
 1629SOL     OW 4841   0.347   2.108   0.130 -0.2745  0.0293  0.3631
 1629SOL    HW1 4842   0.399   2.023   0.120 -1.5831 -0.7508 -0.0834
 1629SOL    HW2 4843   0.264   2.103   0.073 -0.0908  1.8422 -0.1242
 1630SOL     OW 4844   0.657   1.816   1.590  0.4847 -0.4503 -0.8445
 1630SOL    HW1 4845   0.658   1.904   1.638  1.4856 -1.5355  1.2859
 1630SOL    HW2 4846   0.603   1.824   1.506 -0.4026  1.8664 -0.1336
 1631SOL     OW 4847   2.653   1.632   3.780  0.5323  0.2013 -0.1895
 1631SOL    HW1 4848   2.735   1.601   3.732  2.2080  0.0869  2.5946
 1631SOL    HW2 4849   2.608   1.553   3.823 -0.3485  0.4492 -0.6246
 1632SOL     OW 4850   3.053   3.141   1.171  0.1382  0.1802  0.1388
 1632SOL    HW1 4851   3.110   3.161   1.091 -1.6906 -0.4610 -1.4025
 1632SOL    HW2 4852   2.973   3.089   1.142 -1.5208  1.4696  2.1184
 1633SOL     OW 4853   0.107   0.599   0.343 -0.2727  0.7222  0.3624
 1633SOL    HW1 4854   0.202   0.594   0.310 -0.6642 -3.5258 -0.7399
 1633SOL    HW2 4855   0.107   0.626   0.439  2.1186  0.3038  0.5574
 1634SOL     OW 4856   2.625   3.357   3.793  0.3156  0.3340  0.3837
 1634SOL    HW1 4857   2.715   3.315   3.791  0.0611 -0.2802 -2.5360
 1634SOL    HW2 4858   2.597   3.381   3.700 -2.6502  0.2434  1.1448
 1635SOL     OW 4859   0.188   1.662   1.818  0.0818  0.2169 -0.1843
 1635SOL    HW1 4860   0.151   1.752   1.795  0.0002 -0.0243 -1.0489
 1635SOL    HW2 4861   0.287   1.662   1.806  0.2634  0.5906  1.2060
 1636SOL     OW 4862   0.066   2.777   1.270 -0.6273 -0.1255 -0.7932
 1636SOL    HW1 4863  -0.007   2.709   1.277 -0.1664 -0.5306  0.4460
 1636SOL    HW2 4864   0.100   2.780   1.176 -0.3565 -1.9614 -0.8002
 1637SOL     OW 4865   3.464   2.080   3.047  0.0967 -0.6910 -0.0625
 1637SOL    HW1 4866   3.435   2.164   3.000 -0.4150 -1.2484 -0.7743
 1637SOL    HW2 4867   3.539   2.039   2.997  1.5000  0.2122  1.2249
 1638SOL     OW 4868   2.420   2.578   2.194 -0.4769  0.2636 -0.3599
 1638SOL    HW1 4869   2.456   2.671   2.184  0.6351 -0.1837 -0.7307
 1638SOL    HW2 4870   2.496   2.513   2.190 -1.4795 -0.8861 -3.3132
 1639SOL     OW 4871   2.782   1.741   2.639 -0.3207  0.2656  0.8950
 1639SOL    HW1 4872   2.699   1.761   2.586  1.2100 -0.3855 -1.9509
 1639SOL    HW2 4873   2.818   1.826   2.679 -1.9095  0.6576  1.5784
 1640SOL     OW 4874   2.394   1.992   3.590  0.2805  0.2862 -0.4412
 1640SOL    HW1 4875   2.458   1.937   3.536  0.6721  0.3071 -0.0061
 1640SOL    HW2 4876   2.324   2.030   3.530  0.9125  0.6049 -0.9957
 1641SOL     OW 4877   2.956   1.675   0.592 -0.5932  0.9149  0.0251
 1641SOL    HW1 4878   2.922   1.588   0.555 -0.6838  0.5179  0.9994
 1641SOL    HW2 4879   3.051   1.687   0.566 -0.5494  0.4616 -0.0334
 1642SOL     OW 4880   1.252   3.582   1.411  0.0465 -0.5327  0.0209
 1642SOL    HW1 4881   1.222   3.674   1.437 -0.1775 -0.7533  0.5598
 1642SOL    HW2 4882   1.187   3.543   1.346 -1.6522 -1.5255  2.1773
 1643SOL     OW 4883   2.606   3.786   2.764  0.0957  0.2660  0.7710
 1643SOL    HW1 4884   2.566   3.735   2.840 -0.1725 -1.1835 -0.2822
 1643SOL    HW2 4885   2.648   3.721   2.700 -0.8305  1.3195 -0.9744
 1644SOL     OW 4886   1.980   0.299   2.392  0.3205 -0.0362 -0.1171
 1644SOL    HW1 4887   1.968   0.388   2.349 -0.0132 -0.1425 -0.2441
 1644SOL    HW2 4888   1.957   0.304   2.489 -1.1168 -0.3181 -0.4269
 1645SOL     OW 4889   2.736   2.284   1.745  0.2737  0.3866  0.1737
 1645SOL    HW1 4890   2.740   2.314   1.650  0.1206 -0.0100  0.0390
 1645SOL    HW2 4891   2.684   2.199   1.751  1.6515 -0.4729  0.3815
 1646SOL     OW 4892   1.524   3.081   1.928 -0.5809  0.2064 -0.0096
 1646SOL    HW1 4893   1.444   3.023   1.946 -0.2651 -0.1238  0.3397
 1646SOL    HW2 4894   1.517   3.165   1.981  0.2503 -0.6754  1.5923
 1647SOL     OW 4895   2.967   2.644   3.349  0.1508  0.3617  0.0670
 1647SOL    HW1 4896   2.899   2.678   3.284 -1.2867 -1.7159  0.3792
 1647SOL    HW2 4897   2.958   2.693   3.436 -0.4914  0.5678 -0.1138
 1648SOL     OW 4898   3.705   3.259   0.267  0.0283  0.4832 -0.1232
 1648SOL    HW1 4899   3.743   3.167   0.261 -1.0714  0.0715 -1.2117
 1648SOL    HW2 4900   3.748   3.309   0.342  3.3619  0.3800 -1.8064
 1649SOL     OW 4901   3.327   2.167   1.146 -0.5296 -0.0921 -1.0122
 1649SOL    HW1 4902   3.300   2.128   1.234 -1.8735 -0.9052 -1.7553
 1649SOL    HW2 4903   3.327   2.267   1.153  0.7064 -0.1429  0.2603
 1650SOL     OW 4904   3.031   3.099   3.284 -0.1083 -0.0382 -0.5561
 1650SOL    HW1 4905   2.947   3.121   3.235 -1.2301 -0.4066  1.1425
 1650SOL    HW2 4906   3.109   3.140   3.236 -1.5072  2.6351 -0.7066
 1651SOL     OW 4907   1.718   2.995   0.234  0.0079 -0.0200  0.3285
 1651SOL    HW1 4908   1.625   2.959   0.237 -0.7028  1.4531 -1.7304
 1651SOL    HW2 4909   1.734   3.054   0.314 -0.7829 -0.3847  0.7641
 1652SOL     OW 4910   2.948   2.754   3.594  0.3007 -0.1159 -0.5197
 1652SOL    HW1 4911   2.894   2.829   3.632 -0.7208 -0.7302 -0.7487
 1652SOL    HW2 4912   2.973   2.691   3.668 -2.7526 -1.9884 -0.9231
 1653SOL     OW 4913   0.324   2.664   0.149  0.0884 -0.6176  0.0641
 1653SOL    HW1 4914   0.332   2.581   0.203 -0.9521 -0.4138  0.5625
 1653SOL    HW2 4915   0.301   2.640   0.054 -1.2422 -0.8837  0.4324
 1654SOL     OW 4916   1.318   3.754   1.718  0.0618  0.0490  0.1787
 1654SOL    HW1 4917   1.350   3.660   1.704  0.0393  0.3298 -2.0570
 1654SOL    HW2 4918   1.341   3.783   1.811  2.3841 -1.2676  0.0826
 1655SOL     OW 4919   2.617   2.683   2.632 -0.7739 -0.1153 -0.5092
 1655SOL    HW1 4920   2.622   2.613   2.704  0.2524 -1.1020 -1.5027
 1655SOL    HW2 4921   2.522   2.695   2.603 -0.7825 -2.5173 -1.6627
 1656SOL     OW 4922   2.749   0.136   2.899  0.3053 -0.9061 -0.0166
 1656SOL    HW1 4923   2.683   0.190   2.952 -1.2522  1.2729 -3.7605
 1656SOL    HW2 4924   2.703   0.054   2.863  0.5408 -0.9817 -0.1451
 1657SOL     OW 4925   0.813   1.304   3.260 -0.1947  0.5719 -0.0733
 1657SOL    HW1 4926   0.878   1.251   3.206 -1.1906  0.8432 -1.6277
 1657SOL    HW2 4927   0.815   1.273   3.355  1.3310 -0.2162 -0.3284
 1658SOL     OW 4928   2.429   0.156   0.543  0.0982 -0.1291 -0.4145
 1658SOL    HW1 4929   2.412   0.253   0.556  0.6645 -0.1169  0.2806
 1658SOL    HW2 4930   2.527   0.139   0.542  0.1344 -0.3348 -3.3073
 1659SOL     OW 4931   1.274   0.172   2.143 -0.9636  0.4042 -0.8432
 1659SOL    HW1 4932   1.325   0.122   2.213 -0.4365  0.6602 -1.0323
 1659SOL    HW2 4933   1.257   0.266   2.174 -0.0834  0.7412 -1.3438
 1660SOL     OW 4934   1.910   3.019   2.497  0.0546  0.5576  0.2422
 1660SOL    HW1 4935   1.924   2.961   2.578  1.4523 -0.2644 -0.5261
 1660SOL    HW2 4936   1.995   3.068   2.477  0.5009 -1.0023 -2.0086
 1661SOL     OW 4937   2.853   0.064   2.572 -0.5978  0.1240  0.1235
 1661SOL    HW1 4938   2.754   0.061   2.581 -0.4872 -0.0342  1.6530
 1661SOL    HW2 4939   2.895   0.014   2.648  0.6567 -0.8160 -1.1275
 1662SOL     OW 4940   2.874   1.918   2.997 -0.4097  0.4191 -0.1550
 1662SOL    HW1 4941   2.868   2.017   2.987 -2.7606  0.4715  0.9176
 1662SOL    HW2 4942   2.969   1.889   2.991  0.4497  2.8609  0.5531
 1663SOL     OW 4943   2.566   2.844   1.956 -0.0914  0.3130 -0.1900
 1663SOL    HW1 4944   2.554   2.842   2.056 -2.3035 -2.0124 -0.4016
 1663SOL    HW2 4945   2.656   2.805   1.933 -0.8654 -2.3591  0.8672
 1664SOL     OW 4946   1.864   3.711   3.611 -0.3581 -0.8845  0.4094
 1664SOL    HW1 4947   1.926   3.742   3.684  0.7617 -2.8849  0.3791
 1664SOL    HW2 4948   1.777   3.759   3.619  1.1544  2.0866  0.4298
 1665SOL     OW 4949   3.272   2.649   2.895  0.6619  0.3375 -0.4776
 1665SOL    HW1 4950   3.329   2.729   2.909  1.3013  0.0695 -1.4023
 1665SOL    HW2 4951   3.255   2.637   2.797  0.3020 -0.4685 -0.3295
 1666SOL     OW 4952   0.411   0.639   0.296  0.1855  0.1968  0.3577
 1666SOL    HW1 4953   0.382   0.713   0.357  0.9884  0.3919  0.5093
 1666SOL    HW2 4954   0.509   0.647   0.278  0.2328 -0.7025  0.1908
 1667SOL     OW 4955   2.169   0.095   2.911  0.0545  0.0281  0.0391
 1667SOL    HW1 4956   2.236   0.052   2.850 -0.7498 -0.5582 -0.4505
 1667SOL    HW2 4957   2.077   0.067   2.885 -0.5990  2.6596 -0.8249
 1668SOL     OW 4958   3.618   3.491   3.574 -0.2127  0.0586  0.0469
 1668SOL    HW1 4959   3.613   3.474   3.673 -2.5308 -0.7105 -0.1333
 1668SOL    HW2 4960   3.595   3.407   3.525 -0.0486  0.6901 -1.1441
 1669SOL     OW 4961   0.056   1.986   2.120 -0.2793 -0.2317 -0.1631
 1669SOL    HW1 4962   0.014   1.954   2.035  0.6237 -0.2676 -0.6099
 1669SOL    HW2 4963   0.130   1.924   2.146 -1.7884 -1.3414  1.7314
 1670SOL     OW 4964   1.901   0.680   3.363 -0.6199 -0.2861 -0.5286
 1670SOL    HW1 4965   1.949   0.628   3.434 -0.6498 -2.8123 -2.2182
 1670SOL    HW2 4966   1.803   0.664   3.371 -0.5961 -0.8318 -1.3237
 1671SOL     OW 4967   3.351   2.573   3.740 -0.3816 -0.4577  0.5284
 1671SOL    HW1 4968   3.251   2.572   3.733 -0.3299 -1.1586 -0.2715
 1671SOL    HW2 4969   3.385   2.479   3.734  0.3139 -0.2358  0.9716
 1672SOL     OW 4970   0.504   1.888   1.361  0.3983 -0.5948  0.2092
 1672SOL    HW1 4971   0.578   1.913   1.298 -1.4865 -0.2642 -2.0313
 1672SOL    HW2 4972   0.442   1.824   1.315 -2.2018  1.2513  0.9041
 1673SOL     OW 4973   2.612   2.609   1.613 -0.2638 -0.0304  0.2296
 1673SOL    HW1 4974   2.557   2.590   1.694 -0.8420  0.2319 -0.0955
 1673SOL    HW2 4975   2.552   2.619   1.534  0.1066  1.6728  0.1156
 1674SOL     OW 4976   2.127   2.713   1.309 -0.1481  0.2082 -0.5030
 1674SOL    HW1 4977   2.165   2.627   1.275  0.5735  0.4777 -0.4007
 1674SOL    HW2 4978   2.027   2.712   1.300 -0.0324  0.0149 -2.0054
 1675SOL     OW 4979   3.603   0.109   2.960 -0.0286 -0.3736  0.1531
 1675SOL    HW1 4980   3.698   0.078   2.958  0.0457 -0.4152  2.0503
 1675SOL    HW2 4981   3.563   0.086   3.049 -1.6830  0.0414 -0.4540
 1676SOL     OW 4982   3.008   2.025   2.401  0.6274 -0.0373  0.5559
 1676SOL    HW1 4983   3.082   2.093   2.399 -0.4198  1.1379 -0.8347
 1676SOL    HW2 4984   2.959   2.028   2.314 -0.9556 -0.9073  1.3779
 1677SOL     OW 4985   2.549   2.233   2.850 -0.3724  0.1095 -0.1570
 1677SOL    HW1 4986   2.569   2.165   2.920 -0.6911  1.0510  0.8727
 1677SOL    HW2 4987   2.579   2.199   2.761 -0.2306 -1.2284  0.3850
 1678SOL     OW 4988   1.825   3.462   1.187  0.3561  0.0224 -0.4527
 1678SOL    HW1 4989   1.801   3.553   1.222  0.4633  0.4946 -1.5501
 1678SOL    HW2 4990   1.741   3.414   1.161  0.3839  0.6703 -1.8749
 1679SOL     OW 4991   3.282   1.868   3.002 -0.2959  0.8142 -0.1785
 1679SOL    HW1 4992   3.258   1.811   3.080  0.7071  0.9255  0.2317
 1679SOL    HW2 4993   3.347   1.939   3.031 -0.9061  1.6685 -0.8461
 1680SOL     OW 4994   1.677   3.518   1.624  0.2138 -0.1469 -0.5654
 1680SOL    HW1 4995   1.737   3.440   1.638  0.7640  0.4795  0.7409
 1680SOL    HW2 4996   1.637   3.546   1.711 -0.6080  0.5265 -1.1418
 1681SOL     OW 4997   0.788   3.512   3.351  0.5053  0.0430  0.2297
 1681SOL    HW1 4998   0.827   3.434   3.302  1.5197  0.0375  1.0248
 1681SOL    HW2 4999   0.705   3.542   3.304  1.0038 -0.4656 -1.0180
 1682SOL     OW 5000   2.861   1.843   0.249  0.8048 -0.2461 -0.1760
 1682SOL    HW1 5001   2.933   1.853   0.180  1.4082 -0.7763  0.3656
 1682SOL    HW2 5002   2.855   1.927   0.303  0.4304  0.1169 -0.7546
 1683SOL     OW 5003   0.202   3.015   3.122  0.3460  0.3118 -0.7931
 1683SOL    HW1 5004   0.148   2.977   3.197 -0.0465 -0.0175 -1.2317
 1683SOL    HW2 5005   0.284   2.960   3.109 -0.3505 -0.5757 -1.5963
 1684SOL     OW 5006   0.714   2.363   2.655  0.2401 -0.3436 -0.3822
 1684SOL    HW1 5007   0.679   2.307   2.729  0.1136  0.2682  0.0267
 1684SOL    HW2 5008   0.719   2.458   2.685  2.3430 -0.4107 -0.3670
 1685SOL     OW 5009   3.441   2.686   0.128  0.4163 -0.4175  0.3402
 1685SOL    HW1 5010   3.478   2.774   0.099 -0.4404 -0.1241  0.1024
 1685SOL    HW2 5011   3.410   2.635   0.047  0.0415 -0.5368  0.5576
 1686SOL     OW 5012   3.075   0.814   1.512 -0.2053  0.0172 -0.1890
 1686SOL    HW1 5013   3.126   0.854   1.588  0.0936  1.1071 -0.9375
 1686SOL    HW2 5014   3.029   0.730   1.543 -0.0209  0.3862  1.1560
 1687SOL     OW 5015   2.420   2.443   0.740  0.0777 -0.2784  0.2609
 1687SOL    HW1 5016   2.498   2.381   0.736  1.1671  1.1012 -0.6724
 1687SOL    HW2 5017   2.400   2.466   0.836  1.7620  0.4725  0.4686
 1688SOL     OW 5018   3.530   0.082   0.123  0.2195  0.4809 -0.2807
 1688SOL    HW1 5019   3.463   0.157   0.124 -1.3246 -0.8332 -1.0162
 1688SOL    HW2 5020   3.483  -0.005   0.109  1.8775 -0.7700  1.4218
 1689SOL     OW 5021   1.975   3.091   3.112 -0.2504  0.1871  0.2428
 1689SOL    HW1 5022   1.984   3.108   3.210 -0.3247  2.8638 -0.1303
 1689SOL    HW2 5023   2.054   3.130   3.064 -0.3355 -0.8677 -0.7918
 1690SOL     OW 5024   2.627   2.405   2.207  0.1892  0.2928 -0.0833
 1690SOL    HW1 5025   2.707   2.356   2.244  0.9061  1.9601  0.6726
 1690SOL    HW2 5026   2.606   2.369   2.116 -0.4612 -2.6488  1.1101
 1691SOL     OW 5027   2.425   1.753   2.771 -0.5444 -0.3931  0.1248
 1691SOL    HW1 5028   2.425   1.828   2.705 -1.4318 -1.2074 -0.8406
 1691SOL    HW2 5029   2.497   1.768   2.839 -0.8383  1.4263  0.0828
 1692SOL     OW 5030   2.595   3.227   2.434  0.1724  0.0504 -0.0075
 1692SOL    HW1 5031   2.557   3.180   2.513  0.3279  0.5677  0.3822
 1692SOL    HW2 5032   2.616   3.161   2.362 -0.1746 -0.3961  0.3003
 1693SOL     OW 5033   2.420   1.848   1.347  0.0295 -0.1125 -0.5389
 1693SOL    HW1 5034   2.376   1.924   1.298 -0.4094 -1.4054 -2.2338
 1693SOL    HW2 5035   2.510   1.877   1.379 -0.8103  1.6493  0.3832
 1694SOL     OW 5036   3.450   2.460   3.256 -0.8391  0.0223 -0.3894
 1694SOL    HW1 5037   3.492   2.394   3.318 -0.0490  0.3420 -0.5718
 1694SOL    HW2 5038   3.511   2.476   3.178 -0.9260  1.1128 -0.2536
 1695SOL     OW 5039   1.602   3.373   2.702 -0.2526 -0.0487  0.0858
 1695SOL    HW1 5040   1.634   3.292   2.654  1.1247  0.3822  0.2323
 1695SOL    HW2 5041   1.605   3.452   2.641 -0.2000  0.1584  0.3515
 1696SOL     OW 5042   1.725   3.517   2.124  0.3238  0.4603  0.1898
 1696SOL    HW1 5043   1.729   3.508   2.025 -1.7758 -0.0327  0.1044
 1696SOL    HW2 5044   1.797   3.460   2.166  0.4841 -0.2512 -1.0087
 1697SOL     OW 5045   3.329   2.119   2.704 -0.0664  0.3803 -0.1166
 1697SOL    HW1 5046   3.376   2.058   2.639  0.4851  0.5233  0.1517
 1697SOL    HW2 5047   3.251   2.070   2.744  0.1505 -0.0262 -0.1833
 1698SOL     OW 5048   3.115   3.116   2.468  0.3858  0.0088 -0.0008
 1698SOL    HW1 5049   3.090   3.020   2.482 -1.4602  0.6373  1.4786
 1698SOL    HW2 5050   3.209   3.130   2.498  0.4249 -1.1909  0.5136
 1699SOL     OW 5051   0.218   1.642   2.407 -0.1874  0.2875 -0.2812
 1699SOL    HW1 5052   0.262   1.619   2.320  2.3736 -1.6735  1.3558
 1699SOL    HW2 5053   0.244   1.734   2.434  1.7256 -0.2421 -0.1451
 1700SOL     OW 5054   1.874   3.409   0.202  0.0885 -0.4938  0.1377
 1700SOL    HW1 5055   1.874   3.505   0.229  0.1846 -0.2082 -0.8305
 1700SOL    HW2 5056   1.901   3.352   0.280 -0.7913  0.1874  0.9563
 1701SOL     OW 5057   2.471   3.682   2.994  1.1268 -0.4192 -0.0287
 1701SOL    HW1 5058   2.523   3.642   3.069  0.4591 -1.0712  0.1027
 1701SOL    HW2 5059   2.433   3.771   3.022 -1.3367 -1.8156  1.4060
 1702SOL     OW 5060   3.441   3.651   0.377 -0.5566 -0.5544 -0.4108
 1702SOL    HW1 5061   3.541   3.654   0.382 -0.5472 -2.1369  2.7044
 1702SOL    HW2 5062   3.412   3.656   0.281  2.4281  0.6846 -1.3659
 1703SOL     OW 5063   1.153   1.290   3.259  0.2384  0.2072  0.0576
 1703SOL    HW1 5064   1.180   1.320   3.167  1.4733  1.6904  0.8465
 1703SOL    HW2 5065   1.236   1.272   3.313 -0.4135  1.2263  1.4422
 1704SOL     OW 5066   3.701   1.301   3.288 -0.3384  0.2822  0.2955
 1704SOL    HW1 5067   3.740   1.216   3.252 -1.4643  0.5117 -1.6561
 1704SOL    HW2 5068   3.701   1.299   3.388  1.8999 -0.9290  0.3125
 1705SOL     OW 5069   3.264   2.971   3.065 -0.1676 -0.4445 -0.5937
 1705SOL    HW1 5070   3.363   2.961   3.071 -0.1101  0.5251  0.3687
 1705SOL    HW2 5071   3.220   2.911   3.131  0.0327  2.4850  2.5118
 1706SOL     OW 5072   2.545   0.400   2.554  0.3699  0.2162  0.4977
 1706SOL    HW1 5073   2.557   0.465   2.629 -2.2798  0.8383  0.4983
 1706SOL    HW2 5074   2.488   0.324   2.585 -2.3791  1.4002 -1.2383
 1707SOL     OW 5075   3.069   2.234   3.008 -0.5110 -0.0072 -0.4783
 1707SOL    HW1 5076   2.974   2.264   3.008 -0.4623  0.1593 -0.9932
 1707SOL    HW2 5077   3.118   2.276   3.085 -1.0316 -0.6963  0.2437
 1708SOL     OW 5078   2.823   2.406   3.022  0.0349 -0.0125  0.2117
 1708SOL    HW1 5079   2.732   2.397   2.983  0.9252 -2.0542 -1.5973
 1708SOL    HW2 5080   2.865   2.490   2.989  0.0028 -0.7011 -1.7626
 1709SOL     OW 5081   2.755   3.378   2.065  1.1819 -0.4592  0.2562
 1709SOL    HW1 5082   2.841   3.348   2.107  1.0724 -0.0568  0.7761
 1709SOL    HW2 5083   2.684   3.383   2.135  1.3222  1.5231  0.3201
 1710SOL     OW 5084   2.111   3.573   3.027  0.0911 -0.5050 -0.1641
 1710SOL    HW1 5085   2.029   3.527   3.061 -0.4197  1.2978  1.1951
 1710SOL    HW2 5086   2.191   3.517   3.047 -0.5233 -0.9044  1.3219
 1711SOL     OW 5087   3.619   1.751   0.936  0.0044  0.3278  0.2940
 1711SOL    HW1 5088   3.646   1.655   0.934 -1.2701 -0.0587  0.8821
 1711SOL    HW2 5089   3.690   1.806   0.892  0.1992 -1.0022 -1.1485
 1712SOL     OW 5090   0.626   2.476   2.183 -0.0197  0.6897 -0.5967
 1712SOL    HW1 5091   0.614   2.429   2.270 -0.2979 -0.5644 -1.2878
 1712SOL    HW2 5092   0.722   2.500   2.170  0.3263 -0.6702 -0.6974
 1713SOL     OW 5093   0.796   2.727   3.195  0.0119 -0.8040 -0.1708
 1713SOL    HW1 5094   0.821   2.769   3.282  0.3682 -2.0720  0.3629
 1713SOL    HW2 5095   0.835   2.780   3.120 -0.6281  0.5301  0.4050
 1714SOL     OW 5096   0.997   3.010   1.898  0.5283 -0.2112  0.4101
 1714SOL    HW1 5097   0.999   2.926   1.845  0.2295 -0.1560  0.3119
 1714SOL    HW2 5098   1.041   2.994   1.986  3.3599  0.3667 -0.8028
 1715SOL     OW 5099   3.365   2.718   2.432  0.5376  0.3068 -0.1116
 1715SOL    HW1 5100   3.296   2.703   2.503  0.0153 -0.9584 -0.8434
 1715SOL    HW2 5101   3.325   2.698   2.342  1.5623  0.5850 -0.6441
 1716SOL     OW 5102   3.481   0.806   1.731  0.5147 -0.4101  0.0367
 1716SOL    HW1 5103   3.565   0.792   1.783  0.9334  0.4613 -0.3866
 1716SOL    HW2 5104   3.425   0.723   1.735  0.8910 -0.6255  1.2175
 1717SOL     OW 5105   2.634   0.684   0.119  0.3200 -0.0296 -0.2566
 1717SOL    HW1 5106   2.586   0.711   0.202 -0.5884 -1.6124 -0.2406
 1717SOL    HW2 5107   2.571   0.686   0.041  1.0875  1.1383 -0.8879
   3.83925   3.83925   3.83925
