Built with Packmol
10440
    1ILE      N    1   9.639   0.287   3.155
    1ILE     H1    2   9.544   0.254   3.149
    1ILE     H2    3   9.710   0.228   3.113
    1ILE     H3    4   9.631   0.365   3.092
    1ILE     CA    5   9.689   0.346   3.280
    1ILE     HA    6   9.775   0.407   3.256
    1ILE     CB    7   9.575   0.434   3.349
    1ILE     HB    8   9.521   0.503   3.284
    1ILE    CG2    9   9.472   0.333   3.401
    1ILE   HG21   10   9.489   0.309   3.506
    1ILE   HG22   11   9.368   0.366   3.391
    1ILE   HG23   12   9.478   0.239   3.348
    1ILE    CG1   13   9.628   0.536   3.454
    1ILE   HG12   14   9.719   0.585   3.420
    1ILE   HG13   15   9.649   0.483   3.547
    1ILE    CD1   16   9.527   0.648   3.487
    1ILE   HD11   17   9.436   0.610   3.533
    1ILE   HD12   18   9.568   0.706   3.568
    1ILE   HD13   19   9.500   0.714   3.404
    1ILE      C   20   9.752   0.241   3.370
    1ILE      O   21   9.706   0.129   3.369
    2LEU      N   22   9.855   0.279   3.445
    2LEU      H   23   9.882   0.376   3.439
    2LEU     CA   24   9.901   0.203   3.562
    2LEU     HA   25   9.851   0.106   3.574
    2LEU     CB   26  10.047   0.163   3.550
    2LEU    HB2   27  10.105   0.248   3.588
    2LEU    HB3   28  10.067   0.079   3.615
    2LEU     CG   29  10.103   0.131   3.413
    2LEU     HG   30  10.104   0.213   3.342
    2LEU    CD1   31  10.259   0.106   3.426
    2LEU   HD11   32  10.307   0.204   3.428
    2LEU   HD12   33  10.280   0.051   3.518
    2LEU   HD13   34  10.305   0.045   3.347
    2LEU    CD2   35  10.043   0.008   3.355
    2LEU   HD21   36  10.036  -0.064   3.436
    2LEU   HD22   37   9.938   0.030   3.333
    2LEU   HD23   38  10.092  -0.034   3.267
    2LEU      C   39   9.880   0.278   3.696
    2LEU      O   40   9.871   0.401   3.703
    3ARG      N   41   9.854   0.200   3.800
    3ARG      H   42   9.858   0.100   3.785
    3ARG     CA   43   9.815   0.249   3.934
    3ARG     HA   44   9.834   0.357   3.938
    3ARG     CB   45   9.663   0.233   3.964
    3ARG    HB2   46   9.642   0.296   4.051
    3ARG    HB3   47   9.613   0.284   3.881
    3ARG     CG   48   9.604   0.090   3.984
    3ARG    HG2   49   9.625   0.024   3.901
    3ARG    HG3   50   9.641   0.048   4.077
    3ARG     CD   51   9.453   0.087   4.004
    3ARG    HD2   52   9.430  -0.005   4.060
    3ARG    HD3   53   9.425   0.163   4.077
    3ARG     NE   54   9.374   0.090   3.885
    3ARG     HE   55   9.362   0.001   3.841
    3ARG     CZ   56   9.303   0.195   3.840
    3ARG    NH1   57   9.278   0.301   3.914
    3ARG   HH11   58   9.336   0.326   3.992
    3ARG   HH12   59   9.219   0.376   3.885
    3ARG    NH2   60   9.248   0.181   3.717
    3ARG   HH21   61   9.255   0.096   3.663
    3ARG   HH22   62   9.187   0.256   3.686
    3ARG      C   63   9.893   0.183   4.046
    3ARG      O   64   9.951   0.077   4.030
    4TRP      N   65   9.915   0.260   4.153
    4TRP      H   66   9.864   0.346   4.165
    4TRP     CA   67  10.006   0.220   4.265
    4TRP     HA   68  10.022   0.112   4.262
    4TRP     CB   69  10.145   0.292   4.238
    4TRP    HB2   70  10.130   0.395   4.206
    4TRP    HB3   71  10.213   0.280   4.322
    4TRP     CG   72  10.222   0.235   4.123
    4TRP    CD1   73  10.295   0.123   4.126
    4TRP    HD1   74  10.307   0.056   4.211
    4TRP    NE1   75  10.361   0.110   4.009
    4TRP    HE1   76  10.417   0.027   3.988
    4TRP    CE2   77  10.333   0.211   3.922
    4TRP    CZ2   78  10.369   0.243   3.791
    4TRP    HZ2   79  10.439   0.190   3.727
    4TRP    CH2   80  10.309   0.353   3.730
    4TRP    HH2   81  10.334   0.386   3.631
    4TRP    CZ3   82  10.199   0.417   3.787
    4TRP    HZ3   83  10.157   0.502   3.735
    4TRP    CE3   84  10.157   0.389   3.921
    4TRP    HE3   85  10.074   0.442   3.968
    4TRP    CD2   86  10.227   0.286   3.992
    4TRP      C   87   9.947   0.266   4.409
    4TRP      O   88   9.853   0.346   4.412
    5PRO      N   89  10.007   0.224   4.519
    5PRO     CD   90  10.086   0.104   4.518
    5PRO    HD2   91  10.192   0.126   4.514
    5PRO    HD3   92  10.062   0.030   4.440
    5PRO     CG   93  10.055   0.039   4.657
    5PRO    HG2   94  10.135  -0.028   4.691
    5PRO    HG3   95   9.964  -0.021   4.648
    5PRO     CB   96  10.044   0.161   4.745
    5PRO    HB2   97  10.142   0.204   4.766
    5PRO    HB3   98   9.983   0.131   4.830
    5PRO     CA   99   9.971   0.259   4.655
    5PRO     HA  100   9.864   0.240   4.666
    5PRO      C  101   9.999   0.405   4.695
    5PRO      O  102  10.080   0.462   4.616
    6TRP      N  103   9.964   0.462   4.809
    6TRP      H  104   9.892   0.407   4.854
    6TRP     CA  105  10.007   0.599   4.859
    6TRP     HA  106  10.008   0.671   4.777
    6TRP     CB  107   9.895   0.647   4.960
    6TRP    HB2  108   9.880   0.567   5.033
    6TRP    HB3  109   9.919   0.736   5.018
    6TRP     CG  110   9.760   0.688   4.899
    6TRP    CD1  111   9.650   0.609   4.887
    6TRP    HD1  112   9.651   0.510   4.933
    6TRP    NE1  113   9.543   0.668   4.815
    6TRP    HE1  114   9.462   0.614   4.792
    6TRP    CE2  115   9.591   0.783   4.762
    6TRP    CZ2  116   9.536   0.879   4.675
    6TRP    HZ2  117   9.443   0.857   4.624
    6TRP    CH2  118   9.599   0.997   4.643
    6TRP    HH2  119   9.550   1.059   4.571
    6TRP    CZ3  120   9.728   1.028   4.689
    6TRP    HZ3  121   9.781   1.117   4.659
    6TRP    CE3  122   9.788   0.929   4.774
    6TRP    HE3  123   9.886   0.949   4.817
    6TRP    CD2  124   9.722   0.807   4.816
    6TRP      C  125  10.140   0.605   4.920
    6TRP      O  126  10.194   0.715   4.945
    7TRP      N  127  10.201   0.487   4.947
    7TRP      H  128  10.146   0.406   4.922
    7TRP     CA  129  10.326   0.474   5.023
    7TRP     HA  130  10.315   0.537   5.111
    7TRP     CB  131  10.347   0.326   5.058
    7TRP    HB2  132  10.411   0.279   4.984
    7TRP    HB3  133  10.410   0.326   5.146
    7TRP     CG  134  10.233   0.233   5.097
    7TRP    CD1  135  10.236   0.097   5.097
    7TRP    HD1  136  10.323   0.040   5.070
    7TRP    NE1  137  10.120   0.037   5.136
    7TRP    HE1  138  10.112  -0.063   5.131
    7TRP    CE2  139  10.031   0.137   5.175
    7TRP    CZ2  140   9.904   0.126   5.228
    7TRP    HZ2  141   9.862   0.027   5.242
    7TRP    CH2  142   9.829   0.241   5.255
    7TRP    HH2  143   9.732   0.230   5.301
    7TRP    CZ3  144   9.887   0.367   5.230
    7TRP    HZ3  145   9.827   0.458   5.243
    7TRP    CE3  146  10.025   0.374   5.192
    7TRP    HE3  147  10.078   0.467   5.194
    7TRP    CD2  148  10.100   0.259   5.154
    7TRP      C  149  10.436   0.531   4.939
    7TRP      O  150  10.435   0.511   4.817
    8PRO      N  151  10.547   0.588   4.995
    8PRO     CD  152  10.582   0.591   5.137
    8PRO    HD2  153  10.579   0.491   5.180
    8PRO    HD3  154  10.513   0.660   5.186
    8PRO     CG  155  10.727   0.635   5.139
    8PRO    HG2  156  10.791   0.547   5.148
    8PRO    HG3  157  10.746   0.696   5.226
    8PRO     CB  158  10.748   0.714   5.007
    8PRO    HB2  159  10.849   0.696   4.969
    8PRO    HB3  160  10.715   0.818   5.021
    8PRO     CA  161  10.651   0.650   4.911
    8PRO     HA  162  10.612   0.732   4.852
    8PRO      C  163  10.725   0.553   4.821
    8PRO      O  164  10.795   0.459   4.872
    9TRP      N  165  10.709   0.576   4.688
    9TRP      H  166  10.649   0.648   4.659
    9TRP     CA  167  10.782   0.504   4.581
    9TRP     HA  168  10.879   0.467   4.612
    9TRP     CB  169  10.688   0.387   4.534
    9TRP    HB2  170  10.592   0.436   4.518
    9TRP    HB3  171  10.729   0.349   4.440
    9TRP     CG  172  10.658   0.274   4.636
    9TRP    CD1  173  10.542   0.231   4.691
    9TRP    HD1  174  10.443   0.263   4.665
    9TRP    NE1  175  10.561   0.128   4.782
    9TRP    HE1  176  10.491   0.076   4.835
    9TRP    CE2  177  10.696   0.109   4.808
    9TRP    CZ2  178  10.773   0.022   4.887
    9TRP    HZ2  179  10.724  -0.047   4.953
    9TRP    CH2  180  10.909   0.012   4.866
    9TRP    HH2  181  10.959  -0.064   4.924
    9TRP    CZ3  182  10.971   0.097   4.772
    9TRP    HZ3  183  11.078   0.086   4.764
    9TRP    CE3  184  10.896   0.189   4.694
    9TRP    HE3  185  10.946   0.244   4.616
    9TRP    CD2  186  10.757   0.198   4.714
    9TRP      C  187  10.808   0.599   4.463
    9TRP      O  188  10.718   0.653   4.403
   10ARG      N  189  10.935   0.615   4.428
   10ARG      H  190  11.004   0.584   4.496
   10ARG     CA  191  10.975   0.688   4.315
   10ARG     HA  192  10.914   0.778   4.307
   10ARG     CB  193  11.123   0.718   4.330
   10ARG    HB2  194  11.180   0.625   4.340
   10ARG    HB3  195  11.154   0.756   4.232
   10ARG     CG  196  11.164   0.813   4.440
   10ARG    HG2  197  11.107   0.904   4.416
   10ARG    HG3  198  11.124   0.790   4.538
   10ARG     CD  199  11.319   0.839   4.444
   10ARG    HD2  200  11.342   0.923   4.510
   10ARG    HD3  201  11.375   0.747   4.469
   10ARG     NE  202  11.366   0.894   4.313
   10ARG     HE  203  11.328   0.984   4.289
   10ARG     CZ  204  11.440   0.824   4.224
   10ARG    NH1  205  11.441   0.693   4.228
   10ARG   HH11  206  11.374   0.636   4.277
   10ARG   HH12  207  11.510   0.649   4.168
   10ARG    NH2  208  11.513   0.887   4.133
   10ARG   HH21  209  11.535   0.985   4.135
   10ARG   HH22  210  11.560   0.828   4.067
   10ARG      C  211  10.951   0.605   4.189
   10ARG      O  212  10.970   0.482   4.187
   11ARG      N  213  10.907   0.664   4.076
   11ARG      H  214  10.891   0.763   4.085
   11ARG     CA  215  10.883   0.608   3.942
   11ARG     HA  216  10.967   0.537   3.932
   11ARG     CB  217  10.747   0.524   3.932
   11ARG    HB2  218  10.726   0.501   3.827
   11ARG    HB3  219  10.754   0.432   3.991
   11ARG     CG  220  10.624   0.606   3.979
   11ARG    HG2  221  10.647   0.643   4.078
   11ARG    HG3  222  10.615   0.697   3.918
   11ARG     CD  223  10.489   0.520   3.989
   11ARG    HD2  224  10.457   0.517   3.887
   11ARG    HD3  225  10.513   0.423   4.034
   11ARG     NE  226  10.388   0.597   4.067
   11ARG     HE  227  10.351   0.686   4.036
   11ARG     CZ  228  10.356   0.571   4.191
   11ARG    NH1  229  10.406   0.484   4.276
   11ARG   HH11  230  10.476   0.415   4.252
   11ARG   HH12  231  10.386   0.495   4.374
   11ARG    NH2  232  10.266   0.646   4.247
   11ARG   HH21  233  10.241   0.730   4.198
   11ARG   HH22  234  10.210   0.617   4.325
   11ARG      C  235  10.901   0.715   3.837
   11ARG      O  236  10.860   0.829   3.869
   12LYS      N  237  10.937   0.681   3.713
   12LYS      H  238  10.965   0.585   3.704
   12LYS     CA  239  10.943   0.774   3.597
   12LYS     HA  240  11.028   0.834   3.626
   12LYS     CB  241  10.973   0.685   3.473
   12LYS    HB2  242  11.040   0.603   3.495
   12LYS    HB3  243  10.882   0.632   3.446
   12LYS     CG  244  11.036   0.750   3.355
   12LYS    HG2  245  10.979   0.838   3.325
   12LYS    HG3  246  11.140   0.775   3.379
   12LYS     CD  247  11.041   0.660   3.238
   12LYS    HD2  248  11.105   0.574   3.259
   12LYS    HD3  249  10.941   0.627   3.210
   12LYS     CE  250  11.095   0.746   3.116
   12LYS    HE2  251  11.033   0.835   3.105
   12LYS    HE3  252  11.195   0.788   3.122
   12LYS     NZ  253  11.085   0.672   2.988
   12LYS    HZ1  254  11.157   0.604   2.971
   12LYS    HZ2  255  10.996   0.629   2.970
   12LYS    HZ3  256  11.105   0.743   2.916
   12LYS      C  257  10.830   0.873   3.572
   12LYS      O  258  10.715   0.837   3.584
   13NHE      N  259  10.876   0.990   3.520
   13NHE    HN1  260  10.975   1.012   3.512
   13NHE    HN2  261  10.814   1.062   3.487
    1ILE      N  262   7.940   3.540   1.267
    1ILE     H1  263   8.029   3.492   1.270
    1ILE     H2  264   7.944   3.642   1.266
    1ILE     H3  265   7.914   3.515   1.172
    1ILE     CA  266   7.828   3.492   1.349
    1ILE     HA  267   7.737   3.530   1.305
    1ILE     CB  268   7.826   3.334   1.354
    1ILE     HB  269   7.838   3.281   1.259
    1ILE    CG2  270   7.947   3.295   1.441
    1ILE   HG21  271   7.919   3.279   1.545
    1ILE   HG22  272   7.999   3.205   1.407
    1ILE   HG23  273   8.022   3.373   1.443
    1ILE    CG1  274   7.691   3.272   1.399
    1ILE   HG12  275   7.607   3.324   1.353
    1ILE   HG13  276   7.682   3.280   1.507
    1ILE    CD1  277   7.676   3.123   1.362
    1ILE   HD11  278   7.748   3.060   1.414
    1ILE   HD12  279   7.584   3.087   1.407
    1ILE   HD13  280   7.676   3.099   1.256
    1ILE      C  281   7.826   3.561   1.484
    1ILE      O  282   7.932   3.592   1.535
    2LEU      N  283   7.706   3.585   1.539
    2LEU      H  284   7.627   3.552   1.488
    2LEU     CA  285   7.689   3.614   1.682
    2LEU     HA  286   7.783   3.628   1.736
    2LEU     CB  287   7.619   3.747   1.704
    2LEU    HB2  288   7.512   3.727   1.700
    2LEU    HB3  289   7.641   3.783   1.804
    2LEU     CG  290   7.645   3.861   1.607
    2LEU     HG  291   7.613   3.843   1.504
    2LEU    CD1  292   7.550   3.983   1.644
    2LEU   HD11  293   7.453   3.962   1.601
    2LEU   HD12  294   7.543   3.992   1.753
    2LEU   HD13  295   7.584   4.082   1.610
    2LEU    CD2  296   7.785   3.910   1.613
    2LEU   HD21  297   7.812   3.913   1.718
    2LEU   HD22  298   7.849   3.830   1.574
    2LEU   HD23  299   7.807   4.003   1.563
    2LEU      C  300   7.613   3.503   1.758
    2LEU      O  301   7.535   3.425   1.702
    3ARG      N  302   7.649   3.487   1.884
    3ARG      H  303   7.716   3.552   1.922
    3ARG     CA  304   7.601   3.378   1.972
    3ARG     HA  305   7.516   3.330   1.923
    3ARG     CB  306   7.706   3.265   1.993
    3ARG    HB2  307   7.652   3.180   2.034
    3ARG    HB3  308   7.733   3.233   1.891
    3ARG     CG  309   7.835   3.294   2.076
    3ARG    HG2  310   7.890   3.381   2.039
    3ARG    HG3  311   7.808   3.308   2.180
    3ARG     CD  312   7.934   3.179   2.082
    3ARG    HD2  313   7.992   3.192   2.174
    3ARG    HD3  314   7.880   3.087   2.105
    3ARG     NE  315   8.023   3.167   1.972
    3ARG     HE  316   8.103   3.227   1.977
    3ARG     CZ  317   8.017   3.075   1.874
    3ARG    NH1  318   7.941   2.967   1.882
    3ARG   HH11  319   7.860   2.964   1.942
    3ARG   HH12  320   7.941   2.894   1.815
    3ARG    NH2  321   8.102   3.092   1.770
    3ARG   HH21  322   8.170   3.166   1.766
    3ARG   HH22  323   8.104   3.018   1.701
    3ARG      C  324   7.556   3.427   2.108
    3ARG      O  325   7.591   3.535   2.153
    4TRP      N  326   7.457   3.357   2.165
    4TRP      H  327   7.432   3.267   2.127
    4TRP     CA  328   7.386   3.400   2.288
    4TRP     HA  329   7.447   3.474   2.342
    4TRP     CB  330   7.252   3.472   2.241
    4TRP    HB2  331   7.204   3.415   2.161
    4TRP    HB3  332   7.187   3.494   2.326
    4TRP     CG  333   7.273   3.605   2.177
    4TRP    CD1  334   7.296   3.719   2.242
    4TRP    HD1  335   7.305   3.733   2.350
    4TRP    NE1  336   7.296   3.822   2.153
    4TRP    HE1  337   7.318   3.917   2.182
    4TRP    CE2  338   7.276   3.780   2.026
    4TRP    CZ2  339   7.270   3.840   1.899
    4TRP    HZ2  340   7.278   3.945   1.877
    4TRP    CH2  341   7.259   3.758   1.787
    4TRP    HH2  342   7.251   3.797   1.687
    4TRP    CZ3  343   7.274   3.620   1.795
    4TRP    HZ3  344   7.263   3.563   1.704
    4TRP    CE3  345   7.279   3.552   1.920
    4TRP    HE3  346   7.286   3.443   1.927
    4TRP    CD2  347   7.276   3.632   2.039
    4TRP      C  348   7.351   3.274   2.385
    4TRP      O  349   7.362   3.160   2.339
    5PRO      N  350   7.303   3.298   2.506
    5PRO     CD  351   7.329   3.423   2.572
    5PRO    HD2  352   7.243   3.489   2.567
    5PRO    HD3  353   7.419   3.478   2.539
    5PRO     CG  354   7.349   3.382   2.721
    5PRO    HG2  355   7.328   3.463   2.791
    5PRO    HG3  356   7.454   3.353   2.735
    5PRO     CB  357   7.249   3.270   2.735
    5PRO    HB2  358   7.146   3.308   2.740
    5PRO    HB3  359   7.284   3.209   2.818
    5PRO     CA  360   7.263   3.197   2.603
    5PRO     HA  361   7.345   3.126   2.612
    5PRO      C  362   7.135   3.120   2.566
    5PRO      O  363   7.066   3.178   2.477
    6TRP      N  364   7.086   3.017   2.633
    6TRP      H  365   7.157   2.978   2.694
    6TRP     CA  366   6.950   2.951   2.611
    6TRP     HA  367   6.928   2.944   2.505
    6TRP     CB  368   6.964   2.803   2.665
    6TRP    HB2  369   7.004   2.807   2.766
    6TRP    HB3  370   6.870   2.747   2.673
    6TRP     CG  371   7.047   2.706   2.580
    6TRP    CD1  372   7.179   2.676   2.600
    6TRP    HD1  373   7.229   2.714   2.689
    6TRP    NE1  374   7.236   2.594   2.499
    6TRP    HE1  375   7.334   2.575   2.499
    6TRP    CE2  376   7.144   2.585   2.400
    6TRP    CZ2  377   7.145   2.526   2.273
    6TRP    HZ2  378   7.239   2.492   2.231
    6TRP    CH2  379   7.034   2.518   2.191
    6TRP    HH2  380   7.050   2.476   2.094
    6TRP    CZ3  381   6.911   2.576   2.227
    6TRP    HZ3  382   6.826   2.576   2.161
    6TRP    CE3  383   6.909   2.641   2.355
    6TRP    HE3  384   6.816   2.684   2.390
    6TRP    CD2  385   7.022   2.644   2.446
    6TRP      C  386   6.836   3.020   2.673
    6TRP      O  387   6.719   2.987   2.644
    7TRP      N  388   6.864   3.120   2.760
    7TRP      H  389   6.962   3.136   2.774
    7TRP     CA  390   6.763   3.187   2.843
    7TRP     HA  391   6.702   3.109   2.886
    7TRP     CB  392   6.835   3.272   2.948
    7TRP    HB2  393   6.845   3.374   2.914
    7TRP    HB3  394   6.764   3.282   3.030
    7TRP     CG  395   6.962   3.226   3.018
    7TRP    CD1  396   7.049   3.304   3.087
    7TRP    HD1  397   7.036   3.411   3.100
    7TRP    NE1  398   7.156   3.238   3.141
    7TRP    HE1  399   7.230   3.291   3.186
    7TRP    CE2  400   7.139   3.102   3.116
    7TRP    CZ2  401   7.216   2.996   3.157
    7TRP    HZ2  402   7.306   3.015   3.215
    7TRP    CH2  403   7.183   2.866   3.116
    7TRP    HH2  404   7.244   2.784   3.153
    7TRP    CZ3  405   7.069   2.847   3.037
    7TRP    HZ3  406   7.046   2.747   2.998
    7TRP    CE3  407   6.982   2.958   3.012
    7TRP    HE3  408   6.884   2.943   2.972
    7TRP    CD2  409   7.018   3.092   3.043
    7TRP      C  410   6.676   3.268   2.751
    7TRP      O  411   6.728   3.327   2.656
    8PRO      N  412   6.546   3.294   2.781
    8PRO     CD  413   6.475   3.261   2.904
    8PRO    HD2  414   6.530   3.298   2.992
    8PRO    HD3  415   6.461   3.153   2.906
    8PRO     CG  416   6.346   3.341   2.897
    8PRO    HG2  417   6.357   3.433   2.955
    8PRO    HG3  418   6.266   3.286   2.944
    8PRO     CB  419   6.321   3.364   2.746
    8PRO    HB2  420   6.276   3.462   2.731
    8PRO    HB3  421   6.270   3.276   2.703
    8PRO     CA  422   6.460   3.368   2.687
    8PRO     HA  423   6.450   3.317   2.591
    8PRO      C  424   6.501   3.513   2.664
    8PRO      O  425   6.499   3.595   2.761
    9TRP      N  426   6.538   3.541   2.537
    9TRP      H  427   6.541   3.468   2.470
    9TRP     CA  428   6.570   3.677   2.486
    9TRP     HA  429   6.518   3.756   2.540
    9TRP     CB  430   6.726   3.693   2.496
    9TRP    HB2  431   6.763   3.603   2.449
    9TRP    HB3  432   6.751   3.782   2.437
    9TRP     CG  433   6.788   3.695   2.637
    9TRP    CD1  434   6.879   3.613   2.697
    9TRP    HD1  435   6.933   3.533   2.650
    9TRP    NE1  436   6.906   3.648   2.829
    9TRP    HE1  437   6.971   3.606   2.894
    9TRP    CE2  438   6.818   3.746   2.872
    9TRP    CZ2  439   6.797   3.819   2.990
    9TRP    HZ2  440   6.856   3.796   3.078
    9TRP    CH2  441   6.718   3.932   2.989
    9TRP    HH2  442   6.715   3.987   3.081
    9TRP    CZ3  443   6.649   3.967   2.871
    9TRP    HZ3  444   6.585   4.053   2.879
    9TRP    CE3  445   6.663   3.891   2.751
    9TRP    HE3  446   6.618   3.927   2.660
    9TRP    CD2  447   6.746   3.778   2.752
    9TRP      C  448   6.526   3.689   2.339
    9TRP      O  449   6.571   3.618   2.253
   10ARG      N  450   6.439   3.786   2.312
   10ARG      H  451   6.392   3.826   2.392
   10ARG     CA  452   6.399   3.819   2.182
   10ARG     HA  453   6.384   3.728   2.125
   10ARG     CB  454   6.274   3.904   2.193
   10ARG    HB2  455   6.293   3.993   2.253
   10ARG    HB3  456   6.258   3.943   2.092
   10ARG     CG  457   6.149   3.835   2.244
   10ARG    HG2  458   6.135   3.753   2.172
   10ARG    HG3  459   6.161   3.780   2.336
   10ARG     CD  460   6.023   3.932   2.248
   10ARG    HD2  461   5.933   3.875   2.265
   10ARG    HD3  462   6.039   4.013   2.320
   10ARG     NE  463   5.996   3.987   2.111
   10ARG     HE  464   5.971   3.918   2.042
   10ARG     CZ  465   6.020   4.115   2.076
   10ARG    NH1  466   6.104   4.188   2.144
   10ARG   HH11  467   6.173   4.152   2.210
   10ARG   HH12  468   6.105   4.286   2.121
   10ARG    NH2  469   5.957   4.169   1.973
   10ARG   HH21  470   5.877   4.129   1.927
   10ARG   HH22  471   5.984   4.263   1.949
   10ARG      C  472   6.509   3.899   2.112
   10ARG      O  473   6.578   3.982   2.174
   11ARG      N  474   6.536   3.878   1.982
   11ARG      H  475   6.479   3.807   1.938
   11ARG     CA  476   6.631   3.946   1.893
   11ARG     HA  477   6.623   4.051   1.927
   11ARG     CB  478   6.783   3.899   1.914
   11ARG    HB2  479   6.846   3.938   1.833
   11ARG    HB3  480   6.820   3.932   2.011
   11ARG     CG  481   6.798   3.745   1.902
   11ARG    HG2  482   6.727   3.701   1.972
   11ARG    HG3  483   6.764   3.712   1.804
   11ARG     CD  484   6.944   3.692   1.943
   11ARG    HD2  485   7.000   3.710   1.853
   11ARG    HD3  486   6.978   3.745   2.032
   11ARG     NE  487   6.938   3.544   1.963
   11ARG     HE  488   6.914   3.479   1.889
   11ARG     CZ  489   6.938   3.486   2.080
   11ARG    NH1  490   6.935   3.538   2.201
   11ARG   HH11  491   6.940   3.637   2.221
   11ARG   HH12  492   6.911   3.477   2.278
   11ARG    NH2  493   6.933   3.356   2.083
   11ARG   HH21  494   6.910   3.310   1.996
   11ARG   HH22  495   6.966   3.301   2.160
   11ARG      C  496   6.582   3.941   1.750
   11ARG      O  497   6.525   3.835   1.717
   12LYS      N  498   6.618   4.035   1.663
   12LYS      H  499   6.665   4.113   1.706
   12LYS     CA  500   6.589   4.034   1.517
   12LYS     HA  501   6.482   4.050   1.520
   12LYS     CB  502   6.666   4.155   1.457
   12LYS    HB2  503   6.667   4.241   1.523
   12LYS    HB3  504   6.772   4.130   1.453
   12LYS     CG  505   6.617   4.211   1.329
   12LYS    HG2  506   6.607   4.132   1.254
   12LYS    HG3  507   6.522   4.262   1.346
   12LYS     CD  508   6.710   4.312   1.273
   12LYS    HD2  509   6.715   4.398   1.340
   12LYS    HD3  510   6.808   4.269   1.257
   12LYS     CE  511   6.654   4.351   1.130
   12LYS    HE2  512   6.641   4.260   1.071
   12LYS    HE3  513   6.556   4.398   1.123
   12LYS     NZ  514   6.749   4.436   1.055
   12LYS    HZ1  515   6.750   4.534   1.081
   12LYS    HZ2  516   6.845   4.403   1.053
   12LYS    HZ3  517   6.712   4.440   0.960
   12LYS      C  518   6.609   3.906   1.436
   12LYS      O  519   6.708   3.838   1.455
   13NHE      N  520   6.517   3.894   1.337
   13NHE    HN1  521   6.437   3.957   1.328
   13NHE    HN2  522   6.522   3.822   1.267
    1ILE      N  523   3.429   8.850  11.389
    1ILE     H1  524   3.396   8.936  11.348
    1ILE     H2  525   3.498   8.799  11.334
    1ILE     H3  526   3.483   8.891  11.464
    1ILE     CA  527   3.336   8.758  11.455
    1ILE     HA  528   3.394   8.696  11.522
    1ILE     CB  529   3.226   8.839  11.535
    1ILE     HB  530   3.261   8.921  11.598
    1ILE    CG2  531   3.136   8.902  11.428
    1ILE   HG21  532   3.048   8.841  11.408
    1ILE   HG22  533   3.101   9.003  11.452
    1ILE   HG23  534   3.187   8.912  11.333
    1ILE    CG1  535   3.151   8.757  11.644
    1ILE   HG12  536   3.220   8.693  11.699
    1ILE   HG13  537   3.076   8.694  11.596
    1ILE    CD1  538   3.078   8.844  11.748
    1ILE   HD11  539   2.998   8.903  11.705
    1ILE   HD12  540   3.020   8.777  11.812
    1ILE   HD13  541   3.141   8.908  11.810
    1ILE      C  542   3.282   8.655  11.358
    1ILE      O  543   3.265   8.688  11.242
    2LEU      N  544   3.257   8.533  11.406
    2LEU      H  545   3.272   8.520  11.505
    2LEU     CA  546   3.171   8.436  11.337
    2LEU     HA  547   3.140   8.468  11.237
    2LEU     CB  548   3.243   8.306  11.309
    2LEU    HB2  549   3.232   8.245  11.399
    2LEU    HB3  550   3.193   8.254  11.228
    2LEU     CG  551   3.392   8.310  11.277
    2LEU     HG  552   3.456   8.346  11.358
    2LEU    CD1  553   3.445   8.161  11.265
    2LEU   HD11  554   3.463   8.125  11.367
    2LEU   HD12  555   3.371   8.099  11.215
    2LEU   HD13  556   3.537   8.147  11.206
    2LEU    CD2  557   3.420   8.378  11.148
    2LEU   HD21  558   3.344   8.344  11.079
    2LEU   HD22  559   3.396   8.484  11.161
    2LEU   HD23  560   3.520   8.367  11.108
    2LEU      C  561   3.040   8.406  11.413
    2LEU      O  562   3.029   8.421  11.536
    3ARG      N  563   2.935   8.379  11.337
    3ARG      H  564   2.951   8.373  11.237
    3ARG     CA  565   2.796   8.362  11.386
    3ARG     HA  566   2.800   8.352  11.495
    3ARG     CB  567   2.706   8.486  11.359
    3ARG    HB2  568   2.618   8.474  11.422
    3ARG    HB3  569   2.760   8.570  11.403
    3ARG     CG  570   2.664   8.519  11.212
    3ARG    HG2  571   2.749   8.529  11.146
    3ARG    HG3  572   2.596   8.443  11.176
    3ARG     CD  573   2.583   8.647  11.197
    3ARG    HD2  574   2.523   8.636  11.105
    3ARG    HD3  575   2.504   8.648  11.272
    3ARG     NE  576   2.657   8.768  11.191
    3ARG     HE  577   2.693   8.790  11.100
    3ARG     CZ  578   2.667   8.860  11.288
    3ARG    NH1  579   2.589   8.861  11.394
    3ARG   HH11  580   2.542   8.778  11.426
    3ARG   HH12  581   2.590   8.933  11.463
    3ARG    NH2  582   2.757   8.960  11.267
    3ARG   HH21  583   2.809   8.969  11.182
    3ARG   HH22  584   2.758   9.035  11.336
    3ARG      C  585   2.728   8.239  11.330
    3ARG      O  586   2.768   8.185  11.228
    4TRP      N  587   2.639   8.181  11.410
    4TRP      H  588   2.606   8.230  11.492
    4TRP     CA  589   2.577   8.049  11.381
    4TRP     HA  590   2.586   8.026  11.275
    4TRP     CB  591   2.659   7.940  11.463
    4TRP    HB2  592   2.680   7.976  11.564
    4TRP    HB3  593   2.611   7.843  11.459
    4TRP     CG  594   2.796   7.914  11.410
    4TRP    CD1  595   2.824   7.837  11.304
    4TRP    HD1  596   2.754   7.785  11.240
    4TRP    NE1  597   2.959   7.825  11.293
    4TRP    HE1  598   3.002   7.776  11.214
    4TRP    CE2  599   3.025   7.895  11.389
    4TRP    CZ2  600   3.159   7.921  11.421
    4TRP    HZ2  601   3.246   7.880  11.372
    4TRP    CH2  602   3.188   8.010  11.524
    4TRP    HH2  603   3.288   8.032  11.556
    4TRP    CZ3  604   3.089   8.090  11.580
    4TRP    HZ3  605   3.119   8.157  11.660
    4TRP    CE3  606   2.951   8.070  11.553
    4TRP    HE3  607   2.873   8.130  11.600
    4TRP    CD2  608   2.916   7.968  11.458
    4TRP      C  609   2.420   8.046  11.426
    4TRP      O  610   2.377   8.136  11.498
    5PRO      N  611   2.346   7.941  11.392
    5PRO     CD  612   2.381   7.860  11.279
    5PRO    HD2  613   2.429   7.768  11.309
    5PRO    HD3  614   2.443   7.909  11.201
    5PRO     CG  615   2.243   7.825  11.215
    5PRO    HG2  616   2.246   7.733  11.156
    5PRO    HG3  617   2.213   7.906  11.148
    5PRO     CB  618   2.157   7.808  11.338
    5PRO    HB2  619   2.179   7.714  11.390
    5PRO    HB3  620   2.055   7.825  11.305
    5PRO     CA  621   2.207   7.920  11.427
    5PRO     HA  622   2.152   8.011  11.401
    5PRO      C  623   2.182   7.891  11.576
    5PRO      O  624   2.286   7.855  11.637
    6TRP      N  625   2.063   7.880  11.634
    6TRP      H  626   1.992   7.920  11.574
    6TRP     CA  627   2.034   7.831  11.775
    6TRP     HA  628   2.109   7.870  11.844
    6TRP     CB  629   1.895   7.894  11.816
    6TRP    HB2  630   1.823   7.871  11.738
    6TRP    HB3  631   1.852   7.855  11.908
    6TRP     CG  632   1.893   8.045  11.845
    6TRP    CD1  633   1.859   8.142  11.757
    6TRP    HD1  634   1.819   8.114  11.659
    6TRP    NE1  635   1.879   8.274  11.805
    6TRP    HE1  636   1.866   8.353  11.744
    6TRP    CE2  637   1.946   8.263  11.922
    6TRP    CZ2  638   2.001   8.357  12.011
    6TRP    HZ2  639   2.009   8.461  11.981
    6TRP    CH2  640   2.055   8.323  12.133
    6TRP    HH2  641   2.100   8.404  12.189
    6TRP    CZ3  642   2.068   8.190  12.175
    6TRP    HZ3  643   2.116   8.162  12.267
    6TRP    CE3  644   2.016   8.092  12.084
    6TRP    HE3  645   2.019   7.987  12.112
    6TRP    CD2  646   1.951   8.124  11.958
    6TRP      C  647   2.034   7.686  11.793
    6TRP      O  648   2.033   7.636  11.908
    7TRP      N  649   2.037   7.610  11.681
    7TRP      H  650   2.037   7.662  11.595
    7TRP     CA  651   2.020   7.464  11.680
    7TRP     HA  652   1.935   7.442  11.744
    7TRP     CB  653   1.999   7.417  11.536
    7TRP    HB2  654   2.093   7.386  11.492
    7TRP    HB3  655   1.945   7.324  11.543
    7TRP     CG  656   1.917   7.496  11.435
    7TRP    CD1  657   1.918   7.482  11.300
    7TRP    HD1  658   1.981   7.410  11.248
    7TRP    NE1  659   1.835   7.566  11.232
    7TRP    HE1  660   1.837   7.567  11.131
    7TRP    CE2  661   1.762   7.638  11.325
    7TRP    CZ2  662   1.660   7.730  11.305
    7TRP    HZ2  663   1.631   7.754  11.204
    7TRP    CH2  664   1.603   7.796  11.415
    7TRP    HH2  665   1.521   7.864  11.397
    7TRP    CZ3  666   1.649   7.765  11.544
    7TRP    HZ3  667   1.611   7.821  11.630
    7TRP    CE3  668   1.741   7.657  11.561
    7TRP    HE3  669   1.761   7.616  11.658
    7TRP    CD2  670   1.809   7.595  11.452
    7TRP      C  671   2.142   7.404  11.744
    7TRP      O  672   2.252   7.454  11.721
    8PRO      N  673   2.137   7.285  11.811
    8PRO     CD  674   2.023   7.194  11.821
    8PRO    HD2  675   1.983   7.170  11.722
    8PRO    HD3  676   1.949   7.242  11.885
    8PRO     CG  677   2.082   7.066  11.876
    8PRO    HG2  678   2.101   6.996  11.794
    8PRO    HG3  679   2.010   7.017  11.940
    8PRO     CB  680   2.210   7.108  11.953
    8PRO    HB2  681   2.286   7.032  11.942
    8PRO    HB3  682   2.182   7.141  12.055
    8PRO     CA  683   2.257   7.231  11.878
    8PRO     HA  684   2.293   7.298  11.956
    8PRO      C  685   2.370   7.193  11.785
    8PRO      O  686   2.354   7.101  11.699
    9TRP      N  687   2.484   7.265  11.803
    9TRP      H  688   2.485   7.339  11.870
    9TRP     CA  689   2.612   7.239  11.735
    9TRP     HA  690   2.625   7.134  11.706
    9TRP     CB  691   2.617   7.334  11.609
    9TRP    HB2  692   2.591   7.431  11.650
    9TRP    HB3  693   2.720   7.332  11.573
    9TRP     CG  694   2.513   7.308  11.497
    9TRP    CD1  695   2.414   7.387  11.446
    9TRP    HD1  696   2.396   7.489  11.470
    9TRP    NE1  697   2.340   7.323  11.347
    9TRP    HE1  698   2.264   7.359  11.292
    9TRP    CE2  699   2.374   7.188  11.341
    9TRP    CZ2  700   2.335   7.078  11.262
    9TRP    HZ2  701   2.255   7.089  11.191
    9TRP    CH2  702   2.412   6.963  11.262
    9TRP    HH2  703   2.380   6.887  11.193
    9TRP    CZ3  704   2.522   6.953  11.349
    9TRP    HZ3  705   2.574   6.859  11.347
    9TRP    CE3  706   2.560   7.062  11.433
    9TRP    HE3  707   2.652   7.054  11.490
    9TRP    CD2  708   2.484   7.179  11.432
    9TRP      C  709   2.730   7.272  11.829
    9TRP      O  710   2.746   7.383  11.873
   10ARG      N  711   2.814   7.174  11.854
   10ARG      H  712   2.782   7.080  11.830
   10ARG     CA  713   2.933   7.191  11.927
   10ARG     HA  714   2.914   7.256  12.011
   10ARG     CB  715   2.981   7.053  11.968
   10ARG    HB2  716   2.997   6.990  11.881
   10ARG    HB3  717   3.083   7.069  12.006
   10ARG     CG  718   2.898   6.979  12.069
   10ARG    HG2  719   2.895   7.047  12.155
   10ARG    HG3  720   2.792   6.972  12.046
   10ARG     CD  721   2.959   6.838  12.108
   10ARG    HD2  722   2.907   6.797  12.195
   10ARG    HD3  723   2.960   6.770  12.022
   10ARG     NE  724   3.097   6.855  12.163
   10ARG     HE  725   3.102   6.907  12.249
   10ARG     CZ  726   3.209   6.820  12.097
   10ARG    NH1  727   3.208   6.807  11.967
   10ARG   HH11  728   3.135   6.842  11.905
   10ARG   HH12  729   3.291   6.765  11.927
   10ARG    NH2  730   3.321   6.797  12.163
   10ARG   HH21  731   3.328   6.784  12.262
   10ARG   HH22  732   3.402   6.777  12.106
   10ARG      C  733   3.039   7.258  11.839
   10ARG      O  734   3.049   7.231  11.718
   11ARG      N  735   3.122   7.350  11.891
   11ARG      H  736   3.106   7.370  11.989
   11ARG     CA  737   3.234   7.423  11.829
   11ARG     HA  738   3.279   7.345  11.765
   11ARG     CB  739   3.186   7.543  11.734
   11ARG    HB2  740   3.273   7.605  11.707
   11ARG    HB3  741   3.137   7.505  11.645
   11ARG     CG  742   3.092   7.642  11.808
   11ARG    HG2  743   3.011   7.583  11.849
   11ARG    HG3  744   3.143   7.684  11.896
   11ARG     CD  745   3.027   7.752  11.712
   11ARG    HD2  746   3.106   7.824  11.704
   11ARG    HD3  747   2.997   7.704  11.618
   11ARG     NE  748   2.913   7.818  11.782
   11ARG     HE  749   2.924   7.871  11.867
   11ARG     CZ  750   2.787   7.792  11.757
   11ARG    NH1  751   2.732   7.704  11.676
   11ARG   HH11  752   2.784   7.645  11.612
   11ARG   HH12  753   2.634   7.682  11.689
   11ARG    NH2  754   2.698   7.857  11.826
   11ARG   HH21  755   2.731   7.907  11.907
   11ARG   HH22  756   2.603   7.872  11.795
   11ARG      C  757   3.335   7.460  11.934
   11ARG      O  758   3.289   7.493  12.045
   12LYS      N  759   3.463   7.476  11.901
   12LYS      H  760   3.484   7.447  11.807
   12LYS     CA  761   3.571   7.527  11.990
   12LYS     HA  762   3.579   7.444  12.058
   12LYS     CB  763   3.697   7.545  11.900
   12LYS    HB2  764   3.705   7.468  11.825
   12LYS    HB3  765   3.683   7.634  11.840
   12LYS     CG  766   3.829   7.543  11.967
   12LYS    HG2  767   3.832   7.614  12.050
   12LYS    HG3  768   3.851   7.441  12.001
   12LYS     CD  769   3.938   7.580  11.875
   12LYS    HD2  770   3.947   7.505  11.795
   12LYS    HD3  771   3.922   7.679  11.834
   12LYS     CE  772   4.071   7.589  11.962
   12LYS    HE2  773   4.054   7.657  12.045
   12LYS    HE3  774   4.107   7.499  12.012
   12LYS     NZ  775   4.184   7.646  11.884
   12LYS    HZ1  776   4.230   7.581  11.821
   12LYS    HZ2  777   4.163   7.730  11.833
   12LYS    HZ3  778   4.257   7.663  11.954
   12LYS      C  779   3.545   7.649  12.079
   12LYS      O  780   3.486   7.744  12.034
   13NHE      N  781   3.610   7.638  12.198
   13NHE    HN1  782   3.659   7.554  12.228
   13NHE    HN2  783   3.613   7.714  12.264
    1ILE      N  784   6.737   7.749   5.375
    1ILE     H1  785   6.826   7.712   5.404
    1ILE     H2  786   6.720   7.847   5.398
    1ILE     H3  787   6.755   7.750   5.275
    1ILE     CA  788   6.615   7.669   5.389
    1ILE     HA  789   6.542   7.709   5.320
    1ILE     CB  790   6.644   7.516   5.357
    1ILE     HB  791   6.702   7.495   5.267
    1ILE    CG2  792   6.728   7.466   5.476
    1ILE   HG21  793   6.666   7.418   5.551
    1ILE   HG22  794   6.807   7.395   5.448
    1ILE   HG23  795   6.778   7.547   5.526
    1ILE    CG1  796   6.518   7.432   5.325
    1ILE   HG12  797   6.449   7.486   5.260
    1ILE   HG13  798   6.467   7.407   5.418
    1ILE    CD1  799   6.550   7.299   5.253
    1ILE   HD11  800   6.608   7.231   5.314
    1ILE   HD12  801   6.457   7.243   5.245
    1ILE   HD13  802   6.595   7.307   5.154
    1ILE      C  803   6.547   7.695   5.522
    1ILE      O  804   6.617   7.720   5.619
    2LEU      N  805   6.414   7.690   5.525
    2LEU      H  806   6.368   7.666   5.438
    2LEU     CA  807   6.337   7.675   5.649
    2LEU     HA  808   6.399   7.682   5.740
    2LEU     CB  809   6.238   7.788   5.669
    2LEU    HB2  810   6.147   7.759   5.615
    2LEU    HB3  811   6.212   7.795   5.774
    2LEU     CG  812   6.275   7.928   5.620
    2LEU     HG  813   6.289   7.937   5.512
    2LEU    CD1  814   6.150   8.023   5.640
    2LEU   HD11  815   6.083   8.006   5.556
    2LEU   HD12  816   6.100   7.999   5.735
    2LEU   HD13  817   6.172   8.130   5.647
    2LEU    CD2  818   6.389   7.986   5.696
    2LEU   HD21  819   6.371   7.960   5.800
    2LEU   HD22  820   6.478   7.928   5.671
    2LEU   HD23  821   6.408   8.092   5.682
    2LEU      C  822   6.263   7.540   5.659
    2LEU      O  823   6.230   7.474   5.559
    3ARG      N  824   6.250   7.491   5.781
    3ARG      H  825   6.283   7.549   5.857
    3ARG     CA  826   6.196   7.357   5.814
    3ARG     HA  827   6.149   7.317   5.723
    3ARG     CB  828   6.307   7.253   5.851
    3ARG    HB2  829   6.261   7.155   5.845
    3ARG    HB3  830   6.377   7.256   5.766
    3ARG     CG  831   6.385   7.270   5.985
    3ARG    HG2  832   6.430   7.368   5.996
    3ARG    HG3  833   6.318   7.250   6.068
    3ARG     CD  834   6.496   7.168   6.007
    3ARG    HD2  835   6.510   7.159   6.115
    3ARG    HD3  836   6.458   7.069   5.983
    3ARG     NE  837   6.621   7.198   5.945
    3ARG     HE  838   6.679   7.260   5.997
    3ARG     CZ  839   6.672   7.137   5.836
    3ARG    NH1  840   6.622   7.026   5.786
    3ARG   HH11  841   6.528   6.997   5.804
    3ARG   HH12  842   6.664   6.976   5.711
    3ARG    NH2  843   6.784   7.193   5.784
    3ARG   HH21  844   6.831   7.270   5.827
    3ARG   HH22  845   6.828   7.142   5.708
    3ARG      C  846   6.094   7.359   5.925
    3ARG      O  847   6.086   7.453   6.003
    4TRP      N  848   5.998   7.267   5.917
    4TRP      H  849   6.008   7.190   5.853
    4TRP     CA  850   5.878   7.266   6.005
    4TRP     HA  851   5.897   7.326   6.094
    4TRP     CB  852   5.760   7.334   5.923
    4TRP    HB2  853   5.760   7.299   5.820
    4TRP    HB3  854   5.665   7.324   5.975
    4TRP     CG  855   5.775   7.482   5.905
    4TRP    CD1  856   5.747   7.574   5.998
    4TRP    HD1  857   5.712   7.556   6.099
    4TRP    NE1  858   5.760   7.698   5.943
    4TRP    HE1  859   5.749   7.782   5.999
    4TRP    CE2  860   5.799   7.692   5.813
    4TRP    CZ2  861   5.830   7.786   5.713
    4TRP    HZ2  862   5.823   7.893   5.721
    4TRP    CH2  863   5.880   7.739   5.592
    4TRP    HH2  864   5.902   7.805   5.509
    4TRP    CZ3  865   5.919   7.607   5.574
    4TRP    HZ3  866   5.956   7.578   5.476
    4TRP    CE3  867   5.890   7.507   5.671
    4TRP    HE3  868   5.917   7.402   5.655
    4TRP    CD2  869   5.825   7.548   5.792
    4TRP      C  870   5.836   7.114   6.046
    4TRP      O  871   5.886   7.020   5.985
    5PRO      N  872   5.741   7.097   6.138
    5PRO     CD  873   5.713   7.199   6.235
    5PRO    HD2  874   5.624   7.255   6.208
    5PRO    HD3  875   5.795   7.270   6.256
    5PRO     CG  876   5.683   7.119   6.365
    5PRO    HG2  877   5.621   7.174   6.436
    5PRO    HG3  878   5.778   7.097   6.415
    5PRO     CB  879   5.611   6.998   6.310
    5PRO    HB2  880   5.508   7.023   6.279
    5PRO    HB3  881   5.623   6.920   6.384
    5PRO     CA  882   5.689   6.969   6.183
    5PRO     HA  883   5.774   6.907   6.210
    5PRO      C  884   5.604   6.894   6.079
    5PRO      O  885   5.564   6.968   5.985
    6TRP      N  886   5.556   6.771   6.094
    6TRP      H  887   5.605   6.724   6.169
    6TRP     CA  888   5.456   6.702   6.003
    6TRP     HA  889   5.477   6.724   5.898
    6TRP     CB  890   5.478   6.546   6.022
    6TRP    HB2  891   5.474   6.525   6.129
    6TRP    HB3  892   5.403   6.482   5.977
    6TRP     CG  893   5.606   6.487   5.962
    6TRP    CD1  894   5.723   6.466   6.028
    6TRP    HD1  895   5.727   6.481   6.136
    6TRP    NE1  896   5.830   6.423   5.945
    6TRP    HE1  897   5.923   6.413   5.982
    6TRP    CE2  898   5.787   6.434   5.817
    6TRP    CZ2  899   5.849   6.414   5.693
    6TRP    HZ2  900   5.957   6.403   5.688
    6TRP    CH2  901   5.782   6.420   5.573
    6TRP    HH2  902   5.842   6.410   5.484
    6TRP    CZ3  903   5.646   6.453   5.565
    6TRP    HZ3  904   5.594   6.463   5.471
    6TRP    CE3  905   5.581   6.477   5.690
    6TRP    HE3  906   5.475   6.499   5.691
    6TRP    CD2  907   5.647   6.465   5.819
    6TRP      C  908   5.315   6.738   6.024
    6TRP      O  909   5.227   6.704   5.942
    7TRP      N  910   5.286   6.811   6.134
    7TRP      H  911   5.366   6.832   6.192
    7TRP     CA  912   5.150   6.841   6.180
    7TRP     HA  913   5.094   6.748   6.174
    7TRP     CB  914   5.156   6.898   6.322
    7TRP    HB2  915   5.157   7.006   6.319
    7TRP    HB3  916   5.059   6.877   6.366
    7TRP     CG  917   5.253   6.846   6.427
    7TRP    CD1  918   5.289   6.909   6.542
    7TRP    HD1  919   5.251   7.006   6.571
    7TRP    NE1  920   5.379   6.842   6.619
    7TRP    HE1  921   5.417   6.886   6.702
    7TRP    CE2  922   5.401   6.718   6.560
    7TRP    CZ2  923   5.478   6.611   6.604
    7TRP    HZ2  924   5.533   6.622   6.698
    7TRP    CH2  925   5.491   6.497   6.525
    7TRP    HH2  926   5.548   6.414   6.565
    7TRP    CZ3  927   5.422   6.490   6.403
    7TRP    HZ3  928   5.437   6.405   6.337
    7TRP    CE3  929   5.330   6.595   6.370
    7TRP    HE3  930   5.260   6.583   6.289
    7TRP    CD2  931   5.322   6.717   6.442
    7TRP      C  932   5.089   6.936   6.080
    7TRP      O  933   5.160   7.025   6.033
    8PRO      N  934   4.955   6.939   6.058
    8PRO     CD  935   4.851   6.865   6.128
    8PRO    HD2  936   4.859   6.880   6.236
    8PRO    HD3  937   4.861   6.760   6.100
    8PRO     CG  938   4.721   6.931   6.085
    8PRO    HG2  939   4.690   7.003   6.161
    8PRO    HG3  940   4.643   6.857   6.080
    8PRO     CB  941   4.751   6.995   5.947
    8PRO    HB2  942   4.696   7.088   5.937
    8PRO    HB3  943   4.740   6.918   5.868
    8PRO     CA  944   4.898   7.029   5.955
    8PRO     HA  945   4.937   7.008   5.855
    8PRO      C  946   4.914   7.177   5.985
    8PRO      O  947   4.858   7.227   6.088
    9TRP      N  948   4.990   7.245   5.895
    9TRP      H  949   5.034   7.195   5.821
    9TRP     CA  950   5.010   7.392   5.895
    9TRP     HA  951   4.925   7.446   5.938
    9TRP     CB  952   5.143   7.420   5.973
    9TRP    HB2  953   5.213   7.351   5.928
    9TRP    HB3  954   5.170   7.524   5.952
    9TRP     CG  955   5.145   7.386   6.124
    9TRP    CD1  956   5.221   7.300   6.196
    9TRP    HD1  957   5.304   7.243   6.160
    9TRP    NE1  958   5.187   7.298   6.331
    9TRP    HE1  959   5.230   7.245   6.406
    9TRP    CE2  960   5.071   7.370   6.353
    9TRP    CZ2  961   4.992   7.403   6.465
    9TRP    HZ2  962   5.016   7.362   6.562
    9TRP    CH2  963   4.898   7.503   6.456
    9TRP    HH2  964   4.848   7.529   6.548
    9TRP    CZ3  965   4.873   7.564   6.331
    9TRP    HZ3  966   4.795   7.638   6.330
    9TRP    CE3  967   4.948   7.528   6.215
    9TRP    HE3  968   4.934   7.585   6.124
    9TRP    CD2  969   5.046   7.428   6.225
    9TRP      C  970   5.023   7.442   5.750
    9TRP      O  971   5.112   7.403   5.677
   10ARG      N  972   4.936   7.533   5.711
   10ARG      H  973   4.854   7.544   5.770
   10ARG     CA  974   4.942   7.599   5.587
   10ARG     HA  975   4.969   7.527   5.511
   10ARG     CB  976   4.807   7.664   5.563
   10ARG    HB2  977   4.783   7.734   5.644
   10ARG    HB3  978   4.824   7.730   5.476
   10ARG     CG  979   4.690   7.573   5.539
   10ARG    HG2  980   4.722   7.513   5.452
   10ARG    HG3  981   4.677   7.494   5.613
   10ARG     CD  982   4.555   7.651   5.511
   10ARG    HD2  983   4.479   7.583   5.475
   10ARG    HD3  984   4.524   7.709   5.599
   10ARG     NE  985   4.571   7.740   5.392
   10ARG     HE  986   4.589   7.693   5.306
   10ARG     CZ  987   4.579   7.875   5.400
   10ARG    NH1  988   4.614   7.933   5.512
   10ARG   HH11  989   4.658   7.886   5.591
   10ARG   HH12  990   4.603   8.033   5.514
   10ARG    NH2  991   4.551   7.950   5.295
   10ARG   HH21  992   4.504   7.917   5.212
   10ARG   HH22  993   4.565   8.049   5.307
   10ARG      C  994   5.051   7.706   5.591
   10ARG      O  995   5.072   7.774   5.693
   11ARG      N  996   5.130   7.727   5.483
   11ARG      H  997   5.110   7.666   5.405
   11ARG     CA  998   5.235   7.827   5.461
   11ARG     HA  999   5.193   7.916   5.510
   11ARG     CB 1000   5.374   7.790   5.533
   11ARG    HB2 1001   5.452   7.857   5.497
   11ARG    HB3 1002   5.363   7.798   5.641
   11ARG     CG 1003   5.424   7.649   5.494
   11ARG    HG2 1004   5.343   7.580   5.515
   11ARG    HG3 1005   5.438   7.642   5.386
   11ARG     CD 1006   5.551   7.600   5.580
   11ARG    HD2 1007   5.631   7.650   5.529
   11ARG    HD3 1008   5.536   7.629   5.684
   11ARG     NE 1009   5.569   7.454   5.562
   11ARG     HE 1010   5.589   7.411   5.472
   11ARG     CZ 1011   5.536   7.365   5.652
   11ARG    NH1 1012   5.476   7.378   5.768
   11ARG   HH11 1013   5.453   7.467   5.810
   11ARG   HH12 1014   5.437   7.296   5.811
   11ARG    NH2 1015   5.557   7.239   5.623
   11ARG   HH21 1016   5.580   7.219   5.527
   11ARG   HH22 1017   5.569   7.167   5.692
   11ARG      C 1018   5.246   7.858   5.313
   11ARG      O 1019   5.229   7.761   5.236
   12LYS      N 1020   5.292   7.977   5.273
   12LYS      H 1021   5.302   8.043   5.348
   12LYS     CA 1022   5.322   8.015   5.133
   12LYS     HA 1023   5.222   8.019   5.093
   12LYS     CB 1024   5.389   8.156   5.140
   12LYS    HB2 1025   5.347   8.218   5.218
   12LYS    HB3 1026   5.491   8.143   5.175
   12LYS     CG 1027   5.382   8.241   5.019
   12LYS    HG2 1028   5.418   8.187   4.932
   12LYS    HG3 1029   5.280   8.276   5.005
   12LYS     CD 1030   5.466   8.362   5.032
   12LYS    HD2 1031   5.427   8.426   5.112
   12LYS    HD3 1032   5.570   8.336   5.050
   12LYS     CE 1033   5.462   8.436   4.892
   12LYS    HE2 1034   5.492   8.366   4.814
   12LYS    HE3 1035   5.367   8.473   4.854
   12LYS     NZ 1036   5.559   8.548   4.886
   12LYS    HZ1 1037   5.529   8.633   4.931
   12LYS    HZ2 1038   5.652   8.527   4.917
   12LYS    HZ3 1039   5.560   8.576   4.787
   12LYS      C 1040   5.398   7.919   5.041
   12LYS      O 1041   5.493   7.859   5.084
   13NHE      N 1042   5.355   7.928   4.913
   13NHE    HN1 1043   5.273   7.982   4.885
   13NHE    HN2 1044   5.401   7.879   4.838
    1ILE      N 1045   9.232   4.650   8.068
    1ILE     H1 1046   9.199   4.704   8.147
    1ILE     H2 1047   9.172   4.651   7.986
    1ILE     H3 1048   9.309   4.709   8.043
    1ILE     CA 1049   9.290   4.517   8.089
    1ILE     HA 1050   9.351   4.495   8.002
    1ILE     CB 1051   9.379   4.515   8.221
    1ILE     HB 1052   9.449   4.598   8.234
    1ILE    CG2 1053   9.278   4.523   8.337
    1ILE   HG21 1054   9.254   4.424   8.375
    1ILE   HG22 1055   9.312   4.584   8.421
    1ILE   HG23 1056   9.184   4.566   8.305
    1ILE    CG1 1057   9.480   4.398   8.229
    1ILE   HG12 1058   9.529   4.381   8.132
    1ILE   HG13 1059   9.428   4.307   8.257
    1ILE    CD1 1060   9.593   4.421   8.331
    1ILE   HD11 1061   9.556   4.426   8.433
    1ILE   HD12 1062   9.651   4.329   8.337
    1ILE   HD13 1063   9.660   4.505   8.313
    1ILE      C 1064   9.185   4.408   8.080
    1ILE      O 1065   9.073   4.433   8.120
    2LEU      N 1066   9.223   4.291   8.029
    2LEU      H 1067   9.320   4.282   8.003
    2LEU     CA 1068   9.147   4.167   8.049
    2LEU     HA 1069   9.050   4.183   8.099
    2LEU     CB 1070   9.106   4.103   7.918
    2LEU    HB2 1071   9.190   4.041   7.886
    2LEU    HB3 1072   9.021   4.037   7.934
    2LEU     CG 1073   9.073   4.194   7.800
    2LEU     HG 1074   9.155   4.254   7.763
    2LEU    CD1 1075   9.047   4.103   7.672
    2LEU   HD11 1076   9.145   4.077   7.631
    2LEU   HD12 1077   8.992   4.013   7.701
    2LEU   HD13 1078   8.986   4.148   7.593
    2LEU    CD2 1079   8.950   4.275   7.823
    2LEU   HD21 1080   8.879   4.208   7.870
    2LEU   HD22 1081   8.973   4.346   7.902
    2LEU   HD23 1082   8.908   4.325   7.736
    2LEU      C 1083   9.221   4.062   8.135
    2LEU      O 1084   9.345   4.060   8.145
    3ARG      N 1085   9.144   3.986   8.210
    3ARG      H 1086   9.044   3.997   8.200
    3ARG     CA 1087   9.193   3.890   8.312
    3ARG     HA 1088   9.301   3.877   8.296
    3ARG     CB 1089   9.178   3.941   8.458
    3ARG    HB2 1090   9.240   3.877   8.520
    3ARG    HB3 1091   9.228   4.039   8.459
    3ARG     CG 1092   9.035   3.955   8.520
    3ARG    HG2 1093   8.969   4.015   8.459
    3ARG    HG3 1094   8.993   3.856   8.535
    3ARG     CD 1095   9.032   4.014   8.660
    3ARG    HD2 1096   8.941   3.977   8.708
    3ARG    HD3 1097   9.108   3.964   8.721
    3ARG     NE 1098   9.036   4.156   8.668
    3ARG     HE 1099   8.947   4.200   8.656
    3ARG     CZ 1100   9.141   4.230   8.706
    3ARG    NH1 1101   9.248   4.179   8.764
    3ARG   HH11 1102   9.272   4.083   8.754
    3ARG   HH12 1103   9.323   4.234   8.800
    3ARG    NH2 1104   9.128   4.365   8.691
    3ARG   HH21 1105   9.043   4.408   8.658
    3ARG   HH22 1106   9.203   4.422   8.728
    3ARG      C 1107   9.127   3.754   8.302
    3ARG      O 1108   9.020   3.739   8.244
    4TRP      N 1109   9.203   3.650   8.337
    4TRP      H 1110   9.289   3.666   8.386
    4TRP     CA 1111   9.163   3.508   8.315
    4TRP     HA 1112   9.054   3.502   8.300
    4TRP     CB 1113   9.234   3.461   8.181
    4TRP    HB2 1114   9.337   3.495   8.178
    4TRP    HB3 1115   9.221   3.354   8.165
    4TRP     CG 1116   9.177   3.521   8.057
    4TRP    CD1 1117   9.064   3.481   7.996
    4TRP    HD1 1118   8.997   3.403   8.029
    4TRP    NE1 1119   9.050   3.549   7.879
    4TRP    HE1 1120   8.967   3.538   7.821
    4TRP    CE2 1121   9.151   3.638   7.859
    4TRP    CZ2 1122   9.184   3.733   7.761
    4TRP    HZ2 1123   9.130   3.752   7.669
    4TRP    CH2 1124   9.294   3.815   7.782
    4TRP    HH2 1125   9.327   3.888   7.710
    4TRP    CZ3 1126   9.358   3.821   7.905
    4TRP    HZ3 1127   9.444   3.887   7.914
    4TRP    CE3 1128   9.331   3.728   8.009
    4TRP    HE3 1129   9.384   3.729   8.105
    4TRP    CD2 1130   9.228   3.631   7.986
    4TRP      C 1131   9.209   3.414   8.439
    4TRP      O 1132   9.289   3.458   8.521
    5PRO      N 1133   9.167   3.288   8.443
    5PRO     CD 1134   9.046   3.249   8.375
    5PRO    HD2 1135   9.067   3.199   8.281
    5PRO    HD3 1136   8.972   3.330   8.357
    5PRO     CG 1137   8.981   3.145   8.472
    5PRO    HG2 1138   8.914   3.076   8.422
    5PRO    HG3 1139   8.922   3.200   8.547
    5PRO     CB 1140   9.103   3.075   8.526
    5PRO    HB2 1141   9.146   3.007   8.452
    5PRO    HB3 1142   9.073   3.033   8.622
    5PRO     CA 1143   9.201   3.189   8.543
    5PRO     HA 1144   9.183   3.234   8.641
    5PRO      C 1145   9.348   3.141   8.538
    5PRO      O 1146   9.404   3.167   8.428
    6TRP      N 1147   9.405   3.060   8.626
    6TRP      H 1148   9.350   3.057   8.711
    6TRP     CA 1149   9.542   2.995   8.614
    6TRP     HA 1150   9.613   3.064   8.571
    6TRP     CB 1151   9.590   2.964   8.761
    6TRP    HB2 1152   9.511   2.909   8.812
    6TRP    HB3 1153   9.679   2.901   8.769
    6TRP     CG 1154   9.632   3.085   8.846
    6TRP    CD1 1155   9.553   3.151   8.935
    6TRP    HD1 1156   9.454   3.112   8.958
    6TRP    NE1 1157   9.613   3.267   8.991
    6TRP    HE1 1158   9.559   3.329   9.049
    6TRP    CE2 1159   9.728   3.288   8.922
    6TRP    CZ2 1160   9.824   3.391   8.925
    6TRP    HZ2 1161   9.803   3.482   8.979
    6TRP    CH2 1162   9.942   3.386   8.853
    6TRP    HH2 1163  10.004   3.474   8.859
    6TRP    CZ3 1164   9.972   3.281   8.765
    6TRP    HZ3 1165  10.061   3.280   8.704
    6TRP    CE3 1166   9.873   3.177   8.757
    6TRP    HE3 1167   9.892   3.091   8.694
    6TRP    CD2 1168   9.751   3.175   8.837
    6TRP      C 1169   9.547   2.874   8.530
    6TRP      O 1170   9.656   2.825   8.496
    7TRP      N 1171   9.428   2.821   8.491
    7TRP      H 1172   9.348   2.870   8.526
    7TRP     CA 1173   9.415   2.692   8.423
    7TRP     HA 1174   9.478   2.622   8.476
    7TRP     CB 1175   9.267   2.652   8.423
    7TRP    HB2 1176   9.220   2.682   8.330
    7TRP    HB3 1177   9.266   2.543   8.413
    7TRP     CG 1178   9.175   2.676   8.541
    7TRP    CD1 1179   9.038   2.674   8.539
    7TRP    HD1 1180   8.980   2.654   8.450
    7TRP    NE1 1181   8.979   2.700   8.659
    7TRP    HE1 1182   8.879   2.709   8.664
    7TRP    CE2 1183   9.080   2.711   8.755
    7TRP    CZ2 1184   9.069   2.730   8.892
    7TRP    HZ2 1185   8.970   2.739   8.936
    7TRP    CH2 1186   9.185   2.744   8.969
    7TRP    HH2 1187   9.174   2.754   9.076
    7TRP    CZ3 1188   9.310   2.736   8.906
    7TRP    HZ3 1189   9.401   2.755   8.964
    7TRP    CE3 1190   9.316   2.699   8.768
    7TRP    HE3 1191   9.410   2.670   8.723
    7TRP    CD2 1192   9.201   2.694   8.684
    7TRP      C 1193   9.471   2.708   8.284
    7TRP      O 1194   9.451   2.814   8.224
    8PRO      N 1195   9.527   2.603   8.218
    8PRO     CD 1196   9.530   2.464   8.259
    8PRO    HD2 1197   9.430   2.428   8.284
    8PRO    HD3 1198   9.600   2.456   8.343
    8PRO     CG 1199   9.573   2.388   8.134
    8PRO    HG2 1200   9.486   2.348   8.084
    8PRO    HG3 1201   9.634   2.303   8.162
    8PRO     CB 1202   9.653   2.491   8.049
    8PRO    HB2 1203   9.634   2.472   7.943
    8PRO    HB3 1204   9.757   2.495   8.084
    8PRO     CA 1205   9.589   2.623   8.084
    8PRO     HA 1206   9.671   2.693   8.087
    8PRO      C 1207   9.491   2.663   7.975
    8PRO      O 1208   9.397   2.584   7.942
    9TRP      N 1209   9.514   2.785   7.922
    9TRP      H 1210   9.587   2.842   7.959
    9TRP     CA 1211   9.442   2.842   7.805
    9TRP     HA 1212   9.404   2.765   7.737
    9TRP     CB 1213   9.326   2.930   7.863
    9TRP    HB2 1214   9.375   2.992   7.937
    9TRP    HB3 1215   9.288   2.990   7.780
    9TRP     CG 1216   9.213   2.858   7.941
    9TRP    CD1 1217   9.170   2.869   8.069
    9TRP    HD1 1218   9.203   2.941   8.141
    9TRP    NE1 1219   9.067   2.781   8.100
    9TRP    HE1 1220   9.016   2.771   8.186
    9TRP    CE2 1221   9.048   2.691   7.996
    9TRP    CZ2 1222   8.960   2.583   7.970
    9TRP    HZ2 1223   8.891   2.551   8.046
    9TRP    CH2 1224   8.949   2.533   7.842
    9TRP    HH2 1225   8.874   2.457   7.829
    9TRP    CZ3 1226   9.034   2.582   7.741
    9TRP    HZ3 1227   9.022   2.535   7.645
    9TRP    CE3 1228   9.127   2.687   7.766
    9TRP    HE3 1229   9.181   2.729   7.683
    9TRP    CD2 1230   9.137   2.740   7.895
    9TRP      C 1231   9.537   2.930   7.722
    9TRP      O 1232   9.592   3.027   7.769
   10ARG      N 1233   9.553   2.896   7.595
   10ARG      H 1234   9.521   2.802   7.570
   10ARG     CA 1235   9.625   2.972   7.503
   10ARG     HA 1236   9.715   3.009   7.551
   10ARG     CB 1237   9.654   2.884   7.383
   10ARG    HB2 1238   9.561   2.847   7.339
   10ARG    HB3 1239   9.692   2.953   7.306
   10ARG     CG 1240   9.749   2.769   7.403
   10ARG    HG2 1241   9.840   2.818   7.439
   10ARG    HG3 1242   9.726   2.705   7.487
   10ARG     CD 1243   9.774   2.686   7.271
   10ARG    HD2 1244   9.858   2.618   7.285
   10ARG    HD3 1245   9.682   2.637   7.236
   10ARG     NE 1246   9.829   2.775   7.164
   10ARG     HE 1247   9.919   2.815   7.184
   10ARG     CZ 1248   9.759   2.814   7.055
   10ARG    NH1 1249   9.628   2.812   7.057
   10ARG   HH11 1250   9.571   2.803   7.140
   10ARG   HH12 1251   9.583   2.828   6.968
   10ARG    NH2 1252   9.821   2.856   6.946
   10ARG   HH21 1253   9.919   2.842   6.928
   10ARG   HH22 1254   9.762   2.889   6.872
   10ARG      C 1255   9.543   3.093   7.460
   10ARG      O 1256   9.420   3.086   7.443
   11ARG      N 1257   9.602   3.213   7.441
   11ARG      H 1258   9.701   3.213   7.458
   11ARG     CA 1259   9.545   3.340   7.393
   11ARG     HA 1260   9.474   3.306   7.316
   11ARG     CB 1261   9.462   3.418   7.506
   11ARG    HB2 1262   9.439   3.520   7.471
   11ARG    HB3 1263   9.371   3.364   7.530
   11ARG     CG 1264   9.545   3.440   7.635
   11ARG    HG2 1265   9.582   3.343   7.666
   11ARG    HG3 1266   9.636   3.498   7.612
   11ARG     CD 1267   9.460   3.500   7.757
   11ARG    HD2 1268   9.457   3.605   7.733
   11ARG    HD3 1269   9.363   3.450   7.760
   11ARG     NE 1270   9.537   3.484   7.883
   11ARG     HE 1271   9.627   3.529   7.899
   11ARG     CZ 1272   9.511   3.393   7.974
   11ARG    NH1 1273   9.424   3.294   7.974
   11ARG   HH11 1274   9.354   3.280   7.902
   11ARG   HH12 1275   9.436   3.221   8.041
   11ARG    NH2 1276   9.587   3.391   8.080
   11ARG   HH21 1277   9.671   3.445   8.076
   11ARG   HH22 1278   9.559   3.352   8.168
   11ARG      C 1279   9.652   3.422   7.325
   11ARG      O 1280   9.766   3.415   7.375
   12LYS      N 1281   9.619   3.510   7.231
   12LYS      H 1282   9.522   3.504   7.202
   12LYS     CA 1283   9.711   3.607   7.166
   12LYS     HA 1284   9.771   3.539   7.107
   12LYS     CB 1285   9.622   3.699   7.078
   12LYS    HB2 1286   9.539   3.646   7.032
   12LYS    HB3 1287   9.569   3.769   7.143
   12LYS     CG 1288   9.687   3.769   6.964
   12LYS    HG2 1289   9.775   3.823   6.997
   12LYS    HG3 1290   9.711   3.696   6.886
   12LYS     CD 1291   9.596   3.867   6.900
   12LYS    HD2 1292   9.511   3.817   6.856
   12LYS    HD3 1293   9.565   3.942   6.973
   12LYS     CE 1294   9.683   3.945   6.792
   12LYS    HE2 1295   9.771   3.985   6.839
   12LYS    HE3 1296   9.724   3.888   6.708
   12LYS     NZ 1297   9.609   4.061   6.735
   12LYS    HZ1 1298   9.540   4.038   6.665
   12LYS    HZ2 1299   9.566   4.122   6.803
   12LYS    HZ3 1300   9.679   4.112   6.682
   12LYS      C 1301   9.811   3.686   7.250
   12LYS      O 1302   9.776   3.734   7.356
   13NHE      N 1303   9.927   3.707   7.184
   13NHE    HN1 1304   9.949   3.663   7.095
   13NHE    HN2 1305  10.000   3.766   7.220
    1ILE      N 1306  11.118   4.749   6.760
    1ILE     H1 1307  11.185   4.687   6.718
    1ILE     H2 1308  11.133   4.849   6.744
    1ILE     H3 1309  11.039   4.726   6.702
    1ILE     CA 1310  11.071   4.726   6.898
    1ILE     HA 1311  10.977   4.778   6.909
    1ILE     CB 1312  11.053   4.570   6.924
    1ILE     HB 1313  11.000   4.513   6.847
    1ILE    CG2 1314  11.196   4.514   6.930
    1ILE   HG21 1315  11.232   4.507   7.033
    1ILE   HG22 1316  11.207   4.415   6.885
    1ILE   HG23 1317  11.266   4.578   6.878
    1ILE    CG1 1318  10.963   4.535   7.046
    1ILE   HG12 1319  10.875   4.599   7.049
    1ILE   HG13 1320  11.020   4.549   7.137
    1ILE    CD1 1321  10.911   4.390   7.044
    1ILE   HD11 1322  10.991   4.317   7.053
    1ILE   HD12 1323  10.859   4.373   7.138
    1ILE   HD13 1324  10.846   4.362   6.961
    1ILE      C 1325  11.157   4.799   6.999
    1ILE      O 1326  11.275   4.812   6.976
    2LEU      N 1327  11.096   4.845   7.108
    2LEU      H 1328  10.998   4.825   7.117
    2LEU     CA 1329  11.168   4.882   7.231
    2LEU     HA 1330  11.278   4.881   7.219
    2LEU     CB 1331  11.142   5.026   7.271
    2LEU    HB2 1332  11.051   5.025   7.331
    2LEU    HB3 1333  11.222   5.061   7.335
    2LEU     CG 1334  11.120   5.130   7.162
    2LEU     HG 1335  11.032   5.114   7.100
    2LEU    CD1 1336  11.081   5.268   7.230
    2LEU   HD11 1337  10.974   5.263   7.254
    2LEU   HD12 1338  11.140   5.282   7.321
    2LEU   HD13 1339  11.100   5.358   7.171
    2LEU    CD2 1340  11.242   5.153   7.080
    2LEU   HD21 1341  11.325   5.155   7.151
    2LEU   HD22 1342  11.260   5.062   7.023
    2LEU   HD23 1343  11.241   5.240   7.015
    2LEU      C 1344  11.139   4.790   7.350
    2LEU      O 1345  11.033   4.724   7.360
    3ARG      N 1346  11.239   4.772   7.434
    3ARG      H 1347  11.323   4.825   7.418
    3ARG     CA 1348  11.239   4.676   7.547
    3ARG     HA 1349  11.136   4.642   7.562
    3ARG     CB 1350  11.322   4.546   7.518
    3ARG    HB2 1351  11.293   4.474   7.594
    3ARG    HB3 1352  11.280   4.507   7.425
    3ARG     CG 1353  11.477   4.556   7.508
    3ARG    HG2 1354  11.510   4.630   7.436
    3ARG    HG3 1355  11.518   4.578   7.607
    3ARG     CD 1356  11.546   4.425   7.472
    3ARG    HD2 1357  11.648   4.431   7.512
    3ARG    HD3 1358  11.505   4.345   7.534
    3ARG     NE 1359  11.552   4.394   7.333
    3ARG     HE 1360  11.626   4.438   7.284
    3ARG     CZ 1361  11.478   4.301   7.270
    3ARG    NH1 1362  11.409   4.209   7.335
    3ARG   HH11 1363  11.379   4.222   7.429
    3ARG   HH12 1364  11.361   4.134   7.289
    3ARG    NH2 1365  11.488   4.299   7.135
    3ARG   HH21 1366  11.549   4.360   7.084
    3ARG   HH22 1367  11.440   4.223   7.087
    3ARG      C 1368  11.289   4.737   7.677
    3ARG      O 1369  11.356   4.838   7.678
    4TRP      N 1370  11.234   4.688   7.788
    4TRP      H 1371  11.181   4.602   7.784
    4TRP     CA 1372  11.254   4.747   7.923
    4TRP     HA 1373  11.344   4.811   7.922
    4TRP     CB 1374  11.128   4.839   7.952
    4TRP    HB2 1375  11.036   4.789   7.922
    4TRP    HB3 1376  11.128   4.876   8.055
    4TRP     CG 1377  11.123   4.965   7.870
    4TRP    CD1 1378  11.194   5.076   7.895
    4TRP    HD1 1379  11.266   5.091   7.975
    4TRP    NE1 1380  11.155   5.173   7.809
    4TRP    HE1 1381  11.201   5.264   7.807
    4TRP    CE2 1382  11.059   5.130   7.723
    4TRP    CZ2 1383  10.988   5.186   7.616
    4TRP    HZ2 1384  10.994   5.287   7.580
    4TRP    CH2 1385  10.903   5.104   7.542
    4TRP    HH2 1386  10.843   5.140   7.461
    4TRP    CZ3 1387  10.903   4.966   7.558
    4TRP    HZ3 1388  10.833   4.908   7.498
    4TRP    CE3 1389  10.972   4.902   7.666
    4TRP    HE3 1390  10.968   4.794   7.682
    4TRP    CD2 1391  11.049   4.986   7.753
    4TRP      C 1392  11.267   4.633   8.038
    4TRP      O 1393  11.235   4.517   8.010
    5PRO      N 1394  11.303   4.669   8.160
    5PRO     CD 1395  11.377   4.790   8.183
    5PRO    HD2 1396  11.313   4.870   8.219
    5PRO    HD3 1397  11.436   4.827   8.097
    5PRO     CG 1398  11.476   4.751   8.297
    5PRO    HG2 1399  11.510   4.838   8.355
    5PRO    HG3 1400  11.564   4.705   8.253
    5PRO     CB 1401  11.390   4.659   8.381
    5PRO    HB2 1402  11.315   4.716   8.438
    5PRO    HB3 1403  11.459   4.597   8.436
    5PRO     CA 1404  11.315   4.581   8.275
    5PRO     HA 1405  11.377   4.497   8.245
    5PRO      C 1406  11.181   4.526   8.328
    5PRO      O 1407  11.081   4.592   8.288
    6TRP      N 1408  11.168   4.436   8.424
    6TRP      H 1409  11.256   4.387   8.438
    6TRP     CA 1410  11.039   4.394   8.493
    6TRP     HA 1411  10.958   4.388   8.420
    6TRP     CB 1412  11.063   4.248   8.548
    6TRP    HB2 1413  11.155   4.249   8.607
    6TRP    HB3 1414  10.986   4.210   8.615
    6TRP     CG 1415  11.069   4.135   8.445
    6TRP    CD1 1416  11.182   4.083   8.390
    6TRP    HD1 1417  11.279   4.115   8.428
    6TRP    NE1 1418  11.159   3.989   8.286
    6TRP    HE1 1419  11.235   3.952   8.233
    6TRP    CE2 1420  11.026   3.992   8.260
    6TRP    CZ2 1421  10.945   3.929   8.163
    6TRP    HZ2 1422  10.992   3.877   8.081
    6TRP    CH2 1423  10.808   3.938   8.162
    6TRP    HH2 1424  10.758   3.890   8.079
    6TRP    CZ3 1425  10.737   4.018   8.253
    6TRP    HZ3 1426  10.630   4.031   8.249
    6TRP    CE3 1427  10.818   4.087   8.350
    6TRP    HE3 1428  10.769   4.147   8.426
    6TRP    CD2 1429  10.962   4.074   8.359
    6TRP      C 1430  10.992   4.484   8.599
    6TRP      O 1431  10.877   4.471   8.647
    7TRP      N 1432  11.077   4.580   8.640
    7TRP      H 1433  11.166   4.580   8.594
    7TRP     CA 1434  11.053   4.667   8.756
    7TRP     HA 1435  11.020   4.603   8.837
    7TRP     CB 1436  11.183   4.742   8.790
    7TRP    HB2 1437  11.183   4.839   8.743
    7TRP    HB3 1438  11.176   4.768   8.895
    7TRP     CG 1439  11.320   4.677   8.780
    7TRP    CD1 1440  11.440   4.741   8.776
    7TRP    HD1 1441  11.450   4.849   8.779
    7TRP    NE1 1442  11.549   4.660   8.766
    7TRP    HE1 1443  11.641   4.700   8.754
    7TRP    CE2 1444  11.504   4.528   8.774
    7TRP    CZ2 1445  11.577   4.411   8.777
    7TRP    HZ2 1446  11.685   4.416   8.770
    7TRP    CH2 1447  11.511   4.287   8.780
    7TRP    HH2 1448  11.570   4.197   8.786
    7TRP    CZ3 1449  11.370   4.286   8.784
    7TRP    HZ3 1450  11.317   4.191   8.779
    7TRP    CE3 1451  11.300   4.410   8.799
    7TRP    HE3 1452  11.195   4.411   8.824
    7TRP    CD2 1453  11.363   4.537   8.786
    7TRP      C 1454  10.940   4.760   8.721
    7TRP      O 1455  10.933   4.804   8.606
    8PRO      N 1456  10.856   4.809   8.816
    8PRO     CD 1457  10.867   4.793   8.961
    8PRO    HD2 1458  10.967   4.823   8.996
    8PRO    HD3 1459  10.844   4.689   8.984
    8PRO     CG 1460  10.769   4.894   9.018
    8PRO    HG2 1461  10.823   4.985   9.046
    8PRO    HG3 1462  10.725   4.856   9.109
    8PRO     CB 1463  10.663   4.916   8.907
    8PRO    HB2 1464  10.630   5.020   8.908
    8PRO    HB3 1465  10.587   4.837   8.912
    8PRO     CA 1466  10.741   4.894   8.779
    8PRO     HA 1467  10.671   4.842   8.713
    8PRO      C 1468  10.778   5.028   8.718
    8PRO      O 1469  10.843   5.112   8.787
    9TRP      N 1470  10.737   5.044   8.590
    9TRP      H 1471  10.692   4.970   8.543
    9TRP     CA 1472  10.749   5.170   8.513
    9TRP     HA 1473  10.749   5.259   8.576
    9TRP     CB 1474  10.882   5.159   8.430
    9TRP    HB2 1475  10.874   5.062   8.382
    9TRP    HB3 1476  10.879   5.240   8.355
    9TRP     CG 1477  11.015   5.155   8.508
    9TRP    CD1 1478  11.113   5.060   8.515
    9TRP    HD1 1479  11.119   4.971   8.457
    9TRP    NE1 1480  11.216   5.095   8.602
    9TRP    HE1 1481  11.301   5.045   8.623
    9TRP    CE2 1482  11.182   5.209   8.674
    9TRP    CZ2 1483  11.244   5.289   8.773
    9TRP    HZ2 1484  11.339   5.259   8.813
    9TRP    CH2 1485  11.193   5.414   8.802
    9TRP    HH2 1486  11.251   5.472   8.871
    9TRP    CZ3 1487  11.073   5.456   8.741
    9TRP    HZ3 1488  11.037   5.552   8.772
    9TRP    CE3 1489  11.006   5.375   8.645
    9TRP    HE3 1490  10.920   5.415   8.593
    9TRP    CD2 1491  11.058   5.248   8.614
    9TRP      C 1492  10.630   5.185   8.417
    9TRP      O 1493  10.606   5.104   8.331
   10ARG      N 1494  10.556   5.294   8.431
   10ARG      H 1495  10.570   5.346   8.518
   10ARG     CA 1496  10.452   5.329   8.345
   10ARG     HA 1497  10.396   5.240   8.320
   10ARG     CB 1498  10.368   5.435   8.414
   10ARG    HB2 1499  10.429   5.522   8.440
   10ARG    HB3 1500  10.301   5.473   8.336
   10ARG     CG 1501  10.289   5.392   8.535
   10ARG    HG2 1502  10.226   5.311   8.496
   10ARG    HG3 1503  10.346   5.339   8.611
   10ARG     CD 1504  10.203   5.509   8.598
   10ARG    HD2 1505  10.133   5.469   8.671
   10ARG    HD3 1506  10.267   5.589   8.637
   10ARG     NE 1507  10.108   5.563   8.495
   10ARG     HE 1508  10.039   5.498   8.463
   10ARG     CZ 1509  10.122   5.684   8.436
   10ARG    NH1 1510  10.239   5.743   8.434
   10ARG   HH11 1511  10.327   5.698   8.452
   10ARG   HH12 1512  10.237   5.839   8.402
   10ARG    NH2 1513  10.018   5.744   8.381
   10ARG   HH21 1514   9.922   5.717   8.396
   10ARG   HH22 1515  10.037   5.831   8.334
   10ARG      C 1516  10.509   5.386   8.215
   10ARG      O 1517  10.610   5.458   8.214
   11ARG      N 1518  10.452   5.356   8.096
   11ARG      H 1519  10.372   5.295   8.103
   11ARG     CA 1520  10.485   5.403   7.961
   11ARG     HA 1521  10.511   5.508   7.979
   11ARG     CB 1522  10.613   5.330   7.898
   11ARG    HB2 1523  10.620   5.355   7.791
   11ARG    HB3 1524  10.703   5.360   7.951
   11ARG     CG 1525  10.599   5.176   7.900
   11ARG    HG2 1526  10.578   5.148   8.002
   11ARG    HG3 1527  10.510   5.146   7.844
   11ARG     CD 1528  10.733   5.099   7.857
   11ARG    HD2 1529  10.728   5.105   7.750
   11ARG    HD3 1530  10.819   5.149   7.902
   11ARG     NE 1531  10.723   4.956   7.896
   11ARG     HE 1532  10.652   4.894   7.858
   11ARG     CZ 1533  10.784   4.903   7.998
   11ARG    NH1 1534  10.859   4.959   8.092
   11ARG   HH11 1535  10.886   5.056   8.091
   11ARG   HH12 1536  10.876   4.907   8.176
   11ARG    NH2 1537  10.765   4.776   8.021
   11ARG   HH21 1538  10.691   4.732   7.970
   11ARG   HH22 1539  10.830   4.719   8.072
   11ARG      C 1540  10.361   5.401   7.874
   11ARG      O 1541  10.283   5.306   7.894
   12LYS      N 1542  10.350   5.485   7.771
   12LYS      H 1543  10.422   5.554   7.768
   12LYS     CA 1544  10.242   5.483   7.669
   12LYS     HA 1545  10.159   5.517   7.730
   12LYS     CB 1546  10.283   5.587   7.561
   12LYS    HB2 1547  10.333   5.673   7.602
   12LYS    HB3 1548  10.362   5.543   7.500
   12LYS     CG 1549  10.176   5.645   7.477
   12LYS    HG2 1550  10.114   5.567   7.433
   12LYS    HG3 1551  10.116   5.713   7.538
   12LYS     CD 1552  10.230   5.726   7.366
   12LYS    HD2 1553  10.283   5.813   7.405
   12LYS    HD3 1554  10.294   5.666   7.302
   12LYS     CE 1555  10.106   5.769   7.276
   12LYS    HE2 1556  10.050   5.680   7.248
   12LYS    HE3 1557  10.029   5.832   7.321
   12LYS     NZ 1558  10.149   5.834   7.150
   12LYS    HZ1 1559  10.177   5.930   7.158
   12LYS    HZ2 1560  10.220   5.785   7.099
   12LYS    HZ3 1561  10.064   5.840   7.094
   12LYS      C 1562  10.195   5.351   7.609
   12LYS      O 1563  10.276   5.268   7.577
   13NHE      N 1564  10.061   5.352   7.583
   13NHE    HN1 1565  10.000   5.427   7.613
   13NHE    HN2 1566  10.016   5.277   7.533
    1ILE      N 1567   5.319   6.976  10.285
    1ILE     H1 1568   5.312   7.075  10.265
    1ILE     H2 1569   5.366   6.920  10.215
    1ILE     H3 1570   5.384   6.982  10.362
    1ILE     CA 1571   5.203   6.904  10.341
    1ILE     HA 1572   5.241   6.814  10.388
    1ILE     CB 1573   5.126   6.994  10.446
    1ILE     HB 1574   5.187   7.046  10.520
    1ILE    CG2 1575   5.056   7.103  10.362
    1ILE   HG21 1576   4.954   7.076  10.339
    1ILE   HG22 1577   5.055   7.202  10.409
    1ILE   HG23 1578   5.106   7.116  10.267
    1ILE    CG1 1579   5.033   6.916  10.543
    1ILE   HG12 1580   5.081   6.824  10.578
    1ILE   HG13 1581   4.941   6.890  10.491
    1ILE    CD1 1582   4.994   6.996  10.669
    1ILE   HD11 1583   4.935   7.084  10.646
    1ILE   HD12 1584   4.921   6.937  10.723
    1ILE   HD13 1585   5.075   7.024  10.736
    1ILE      C 1586   5.117   6.844  10.231
    1ILE      O 1587   5.107   6.905  10.126
    2LEU      N 1588   5.057   6.728  10.257
    2LEU      H 1589   5.071   6.690  10.349
    2LEU     CA 1590   4.943   6.678  10.179
    2LEU     HA 1591   4.921   6.739  10.090
    2LEU     CB 1592   4.971   6.542  10.119
    2LEU    HB2 1593   4.944   6.468  10.195
    2LEU    HB3 1594   4.904   6.525  10.034
    2LEU     CG 1595   5.112   6.508  10.074
    2LEU     HG 1596   5.187   6.506  10.154
    2LEU    CD1 1597   5.117   6.357  10.028
    2LEU   HD11 1598   5.126   6.296  10.118
    2LEU   HD12 1599   5.025   6.332   9.974
    2LEU   HD13 1600   5.198   6.330   9.959
    2LEU    CD2 1601   5.156   6.591   9.959
    2LEU   HD21 1602   5.071   6.597   9.892
    2LEU   HD22 1603   5.166   6.694   9.995
    2LEU   HD23 1604   5.247   6.560   9.908
    2LEU      C 1605   4.811   6.672  10.260
    2LEU      O 1606   4.810   6.663  10.384
    3ARG      N 1607   4.702   6.695  10.190
    3ARG      H 1608   4.711   6.706  10.090
    3ARG     CA 1609   4.566   6.709  10.248
    3ARG     HA 1610   4.570   6.675  10.352
    3ARG     CB 1611   4.517   6.857  10.255
    3ARG    HB2 1612   4.432   6.858  10.322
    3ARG    HB3 1613   4.596   6.910  10.309
    3ARG     CG 1614   4.483   6.932  10.122
    3ARG    HG2 1615   4.565   6.930  10.051
    3ARG    HG3 1616   4.394   6.889  10.078
    3ARG     CD 1617   4.445   7.078  10.140
    3ARG    HD2 1618   4.382   7.105  10.054
    3ARG    HD3 1619   4.372   7.086  10.222
    3ARG     NE 1620   4.553   7.171  10.151
    3ARG     HE 1621   4.591   7.199  10.063
    3ARG     CZ 1622   4.594   7.232  10.263
    3ARG    NH1 1623   4.523   7.233  10.374
    3ARG   HH11 1624   4.454   7.163  10.393
    3ARG   HH12 1625   4.548   7.284  10.455
    3ARG    NH2 1626   4.709   7.303  10.253
    3ARG   HH21 1627   4.759   7.315  10.167
    3ARG   HH22 1628   4.736   7.357  10.335
    3ARG      C 1629   4.461   6.627  10.176
    3ARG      O 1630   4.479   6.587  10.062
    4TRP      N 1631   4.361   6.582  10.252
    4TRP      H 1632   4.348   6.619  10.344
    4TRP     CA 1633   4.260   6.484  10.203
    4TRP     HA 1634   4.259   6.482  10.094
    4TRP     CB 1635   4.307   6.341  10.254
    4TRP    HB2 1636   4.342   6.346  10.357
    4TRP    HB3 1637   4.231   6.265  10.235
    4TRP     CG 1638   4.428   6.287  10.184
    4TRP    CD1 1639   4.428   6.230  10.062
    4TRP    HD1 1640   4.342   6.217   9.997
    4TRP    NE1 1641   4.552   6.182  10.036
    4TRP    HE1 1642   4.575   6.140   9.946
    4TRP    CE2 1643   4.640   6.207  10.137
    4TRP    CZ2 1644   4.775   6.184  10.161
    4TRP    HZ2 1645   4.844   6.130  10.096
    4TRP    CH2 1646   4.833   6.236  10.276
    4TRP    HH2 1647   4.936   6.220  10.302
    4TRP    CZ3 1648   4.767   6.328  10.356
    4TRP    HZ3 1649   4.818   6.364  10.444
    4TRP    CE3 1650   4.628   6.356  10.339
    4TRP    HE3 1651   4.574   6.425  10.404
    4TRP    CD2 1652   4.561   6.292  10.229
    4TRP      C 1653   4.112   6.517  10.262
    4TRP      O 1654   4.101   6.598  10.354
    5PRO      N 1655   4.008   6.449  10.215
    5PRO     CD 1656   4.013   6.388  10.085
    5PRO    HD2 1657   4.031   6.281  10.092
    5PRO    HD3 1658   4.084   6.432  10.013
    5PRO     CG 1659   3.868   6.409  10.030
    5PRO    HG2 1660   3.841   6.336   9.953
    5PRO    HG3 1661   3.863   6.508   9.983
    5PRO     CB 1662   3.785   6.393  10.154
    5PRO    HB2 1663   3.779   6.288  10.185
    5PRO    HB3 1664   3.692   6.446  10.136
    5PRO     CA 1665   3.870   6.463  10.259
    5PRO     HA 1666   3.846   6.569  10.256
    5PRO      C 1667   3.842   6.411  10.401
    5PRO      O 1668   3.932   6.333  10.443
    6TRP      N 1669   3.727   6.423  10.466
    6TRP      H 1670   3.671   6.495  10.422
    6TRP     CA 1671   3.690   6.356  10.597
    6TRP     HA 1672   3.775   6.355  10.665
    6TRP     CB 1673   3.578   6.447  10.663
    6TRP    HB2 1674   3.500   6.463  10.589
    6TRP    HB3 1675   3.528   6.403  10.750
    6TRP     CG 1676   3.624   6.581  10.721
    6TRP    CD1 1677   3.619   6.701  10.657
    6TRP    HD1 1678   3.569   6.708  10.561
    6TRP    NE1 1679   3.680   6.808  10.728
    6TRP    HE1 1680   3.690   6.898  10.686
    6TRP    CE2 1681   3.744   6.752  10.834
    6TRP    CZ2 1682   3.828   6.804  10.934
    6TRP    HZ2 1683   3.867   6.905  10.924
    6TRP    CH2 1684   3.873   6.730  11.041
    6TRP    HH2 1685   3.942   6.780  11.107
    6TRP    CZ3 1686   3.845   6.593  11.055
    6TRP    HZ3 1687   3.886   6.533  11.135
    6TRP    CE3 1688   3.763   6.537  10.952
    6TRP    HE3 1689   3.734   6.433  10.958
    6TRP    CD2 1690   3.707   6.614  10.841
    6TRP      C 1691   3.645   6.217  10.586
    6TRP      O 1692   3.632   6.146  10.688
    7TRP      N 1693   3.621   6.169  10.462
    7TRP      H 1694   3.635   6.237  10.388
    7TRP     CA 1695   3.560   6.039  10.434
    7TRP     HA 1696   3.475   6.030  10.500
    7TRP     CB 1697   3.521   6.033  10.286
    7TRP    HB2 1698   3.599   5.986  10.228
    7TRP    HB3 1699   3.440   5.960  10.280
    7TRP     CG 1700   3.464   6.152  10.211
    7TRP    CD1 1701   3.456   6.168  10.076
    7TRP    HD1 1702   3.492   6.093  10.006
    7TRP    NE1 1703   3.401   6.285  10.034
    7TRP    HE1 1704   3.400   6.308   9.935
    7TRP    CE2 1705   3.357   6.354  10.147
    7TRP    CZ2 1706   3.288   6.473  10.155
    7TRP    HZ2 1707   3.264   6.527  10.063
    7TRP    CH2 1708   3.258   6.528  10.281
    7TRP    HH2 1709   3.200   6.620  10.284
    7TRP    CZ3 1710   3.295   6.458  10.396
    7TRP    HZ3 1711   3.280   6.502  10.494
    7TRP    CE3 1712   3.351   6.326  10.382
    7TRP    HE3 1713   3.360   6.261  10.467
    7TRP    CD2 1714   3.392   6.272  10.257
    7TRP      C 1715   3.660   5.933  10.473
    7TRP      O 1716   3.779   5.953  10.449
    8PRO      N 1717   3.620   5.810  10.515
    8PRO     CD 1718   3.484   5.757  10.518
    8PRO    HD2 1719   3.435   5.768  10.420
    8PRO    HD3 1720   3.430   5.809  10.597
    8PRO     CG 1721   3.502   5.608  10.541
    8PRO    HG2 1722   3.496   5.555  10.445
    8PRO    HG3 1723   3.420   5.570  10.601
    8PRO     CB 1724   3.639   5.593  10.612
    8PRO    HB2 1725   3.687   5.501  10.579
    8PRO    HB3 1726   3.626   5.609  10.720
    8PRO     CA 1727   3.719   5.710  10.559
    8PRO     HA 1728   3.777   5.744  10.644
    8PRO      C 1729   3.812   5.661  10.449
    8PRO      O 1730   3.765   5.599  10.349
    9TRP      N 1731   3.943   5.690  10.470
    9TRP      H 1732   3.969   5.744  10.549
    9TRP     CA 1733   4.055   5.643  10.386
    9TRP     HA 1734   4.034   5.548  10.336
    9TRP     CB 1735   4.084   5.757  10.282
    9TRP    HB2 1736   4.091   5.846  10.343
    9TRP    HB3 1737   4.181   5.733  10.236
    9TRP     CG 1738   3.974   5.788  10.177
    9TRP    CD1 1739   3.903   5.901  10.152
    9TRP    HD1 1740   3.918   5.997  10.198
    9TRP    NE1 1741   3.810   5.885  10.051
    9TRP    HE1 1742   3.747   5.954  10.011
    9TRP    CE2 1743   3.800   5.752  10.014
    9TRP    CZ2 1744   3.727   5.677   9.920
    9TRP    HZ2 1745   3.652   5.726   9.860
    9TRP    CH2 1746   3.764   5.548   9.890
    9TRP    HH2 1747   3.708   5.501   9.810
    9TRP    CZ3 1748   3.869   5.487   9.962
    9TRP    HZ3 1749   3.889   5.385   9.936
    9TRP    CE3 1750   3.941   5.558  10.062
    9TRP    HE3 1751   4.027   5.512  10.107
    9TRP    CD2 1752   3.905   5.691  10.091
    9TRP      C 1753   4.180   5.619  10.473
    9TRP      O 1754   4.231   5.708  10.537
   10ARG      N 1755   4.231   5.497  10.470
   10ARG      H 1756   4.170   5.425  10.431
   10ARG     CA 1757   4.351   5.462  10.533
   10ARG     HA 1758   4.356   5.510  10.629
   10ARG     CB 1759   4.356   5.310  10.542
   10ARG    HB2 1760   4.348   5.266  10.442
   10ARG    HB3 1761   4.459   5.287  10.572
   10ARG     CG 1762   4.256   5.244  10.634
   10ARG    HG2 1763   4.278   5.290  10.731
   10ARG    HG3 1764   4.153   5.274  10.619
   10ARG     CD 1765   4.272   5.086  10.638
   10ARG    HD2 1766   4.214   5.045  10.720
   10ARG    HD3 1767   4.250   5.042  10.540
   10ARG     NE 1768   4.411   5.050  10.682
   10ARG     HE 1769   4.435   5.078  10.775
   10ARG     CZ 1770   4.504   4.998  10.600
   10ARG    NH1 1771   4.495   5.014  10.470
   10ARG   HH11 1772   4.435   5.082  10.424
   10ARG   HH12 1773   4.560   4.960  10.415
   10ARG    NH2 1774   4.606   4.930  10.648
   10ARG   HH21 1775   4.612   4.894  10.742
   10ARG   HH22 1776   4.675   4.899  10.581
   10ARG      C 1777   4.469   5.512  10.450
   10ARG      O 1778   4.467   5.510  10.326
   11ARG      N 1779   4.579   5.562  10.511
   11ARG      H 1780   4.573   5.564  10.612
   11ARG     CA 1781   4.705   5.610  10.454
   11ARG     HA 1782   4.722   5.538  10.372
   11ARG     CB 1783   4.695   5.757  10.390
   11ARG    HB2 1784   4.795   5.794  10.367
   11ARG    HB3 1785   4.633   5.754  10.300
   11ARG     CG 1786   4.638   5.860  10.490
   11ARG    HG2 1787   4.544   5.821  10.526
   11ARG    HG3 1788   4.702   5.865  10.579
   11ARG     CD 1789   4.607   6.003  10.424
   11ARG    HD2 1790   4.704   6.048  10.423
   11ARG    HD3 1791   4.561   5.988  10.326
   11ARG     NE 1792   4.521   6.082  10.516
   11ARG     HE 1793   4.551   6.111  10.609
   11ARG     CZ 1794   4.393   6.101  10.499
   11ARG    NH1 1795   4.310   6.053  10.409
   11ARG   HH11 1796   4.340   5.997  10.330
   11ARG   HH12 1797   4.212   6.059  10.426
   11ARG    NH2 1798   4.330   6.173  10.588
   11ARG   HH21 1799   4.380   6.192  10.673
   11ARG   HH22 1800   4.244   6.222  10.570
   11ARG      C 1801   4.817   5.592  10.554
   11ARG      O 1802   4.786   5.613  10.673
   12LYS      N 1803   4.942   5.576  10.512
   12LYS      H 1804   4.950   5.563  10.413
   12LYS     CA 1805   5.063   5.573  10.599
   12LYS     HA 1806   5.048   5.478  10.648
   12LYS     CB 1807   5.186   5.571  10.503
   12LYS    HB2 1808   5.168   5.514  10.413
   12LYS    HB3 1809   5.198   5.671  10.462
   12LYS     CG 1810   5.313   5.516  10.555
   12LYS    HG2 1811   5.340   5.563  10.649
   12LYS    HG3 1812   5.303   5.408  10.566
   12LYS     CD 1813   5.425   5.538  10.461
   12LYS    HD2 1814   5.408   5.483  10.368
   12LYS    HD3 1815   5.439   5.644  10.442
   12LYS     CE 1816   5.557   5.489  10.535
   12LYS    HE2 1817   5.564   5.539  10.631
   12LYS    HE3 1818   5.565   5.384  10.563
   12LYS     NZ 1819   5.680   5.525  10.460
   12LYS    HZ1 1820   5.701   5.465  10.381
   12LYS    HZ2 1821   5.684   5.621  10.429
   12LYS    HZ3 1822   5.756   5.505  10.524
   12LYS      C 1823   5.079   5.674  10.712
   12LYS      O 1824   5.052   5.790  10.693
   13NHE      N 1825   5.142   5.620  10.820
   13NHE    HN1 1826   5.163   5.521  10.828
   13NHE    HN2 1827   5.170   5.675  10.899
    1ILE      N 1828   7.916   9.186   6.532
    1ILE     H1 1829   7.898   9.274   6.577
    1ILE     H2 1830   7.955   9.113   6.591
    1ILE     H3 1831   7.821   9.158   6.516
    1ILE     CA 1832   7.977   9.183   6.398
    1ILE     HA 1833   7.955   9.086   6.354
    1ILE     CB 1834   7.920   9.300   6.308
    1ILE     HB 1835   7.812   9.314   6.308
    1ILE    CG2 1836   7.982   9.429   6.366
    1ILE   HG21 1837   8.072   9.458   6.313
    1ILE   HG22 1838   7.913   9.515   6.366
    1ILE   HG23 1839   8.011   9.415   6.470
    1ILE    CG1 1840   7.942   9.281   6.155
    1ILE   HG12 1841   7.922   9.178   6.125
    1ILE   HG13 1842   8.045   9.305   6.130
    1ILE    CD1 1843   7.851   9.370   6.068
    1ILE   HD11 1844   7.871   9.476   6.081
    1ILE   HD12 1845   7.881   9.357   5.965
    1ILE   HD13 1846   7.744   9.352   6.077
    1ILE      C 1847   8.129   9.176   6.407
    1ILE      O 1848   8.184   9.232   6.499
    2LEU      N 1849   8.192   9.106   6.312
    2LEU      H 1850   8.135   9.067   6.240
    2LEU     CA 1851   8.336   9.122   6.284
    2LEU     HA 1852   8.388   9.185   6.358
    2LEU     CB 1853   8.410   8.990   6.297
    2LEU    HB2 1854   8.402   8.941   6.200
    2LEU    HB3 1855   8.516   9.010   6.314
    2LEU     CG 1856   8.364   8.889   6.401
    2LEU     HG 1857   8.264   8.849   6.386
    2LEU    CD1 1858   8.449   8.756   6.384
    2LEU   HD11 1859   8.404   8.700   6.302
    2LEU   HD12 1860   8.553   8.781   6.361
    2LEU   HD13 1861   8.455   8.691   6.472
    2LEU    CD2 1862   8.384   8.937   6.540
    2LEU   HD21 1863   8.482   8.986   6.541
    2LEU   HD22 1864   8.315   9.021   6.556
    2LEU   HD23 1865   8.374   8.864   6.619
    2LEU      C 1866   8.365   9.184   6.146
    2LEU      O 1867   8.285   9.177   6.052
    3ARG      N 1868   8.474   9.259   6.141
    3ARG      H 1869   8.532   9.263   6.223
    3ARG     CA 1870   8.514   9.341   6.024
    3ARG     HA 1871   8.453   9.310   5.938
    3ARG     CB 1872   8.485   9.493   6.042
    3ARG    HB2 1873   8.492   9.538   5.943
    3ARG    HB3 1874   8.379   9.499   6.068
    3ARG     CG 1875   8.569   9.575   6.146
    3ARG    HG2 1876   8.567   9.531   6.245
    3ARG    HG3 1877   8.671   9.583   6.110
    3ARG     CD 1878   8.527   9.720   6.161
    3ARG    HD2 1879   8.615   9.775   6.196
    3ARG    HD3 1880   8.514   9.764   6.062
    3ARG     NE 1881   8.417   9.744   6.249
    3ARG     HE 1882   8.443   9.750   6.346
    3ARG     CZ 1883   8.292   9.776   6.213
    3ARG    NH1 1884   8.260   9.813   6.090
    3ARG   HH11 1885   8.317   9.788   6.011
    3ARG   HH12 1886   8.169   9.845   6.064
    3ARG    NH2 1887   8.200   9.779   6.313
    3ARG   HH21 1888   8.223   9.763   6.409
    3ARG   HH22 1889   8.107   9.812   6.288
    3ARG      C 1890   8.660   9.324   5.987
    3ARG      O 1891   8.742   9.280   6.066
    4TRP      N 1892   8.688   9.336   5.857
    4TRP      H 1893   8.619   9.375   5.794
    4TRP     CA 1894   8.821   9.303   5.798
    4TRP     HA 1895   8.897   9.303   5.877
    4TRP     CB 1896   8.810   9.157   5.739
    4TRP    HB2 1897   8.715   9.143   5.685
    4TRP    HB3 1898   8.898   9.130   5.681
    4TRP     CG 1899   8.802   9.049   5.842
    4TRP    CD1 1900   8.906   9.000   5.910
    4TRP    HD1 1901   9.009   9.031   5.904
    4TRP    NE1 1902   8.864   8.894   5.986
    4TRP    HE1 1903   8.926   8.847   6.050
    4TRP    CE2 1904   8.730   8.871   5.972
    4TRP    CZ2 1905   8.637   8.782   6.026
    4TRP    HZ2 1906   8.658   8.701   6.095
    4TRP    CH2 1907   8.503   8.798   5.995
    4TRP    HH2 1908   8.426   8.731   6.030
    4TRP    CZ3 1909   8.456   8.911   5.929
    4TRP    HZ3 1910   8.350   8.916   5.907
    4TRP    CE3 1911   8.545   9.006   5.870
    4TRP    HE3 1912   8.508   9.093   5.815
    4TRP    CD2 1913   8.685   8.985   5.888
    4TRP      C 1914   8.861   9.408   5.680
    4TRP      O 1915   8.775   9.483   5.635
    5PRO      N 1916   8.984   9.403   5.630
    5PRO     CD 1917   9.093   9.347   5.706
    5PRO    HD2 1918   9.116   9.246   5.674
    5PRO    HD3 1919   9.080   9.349   5.816
    5PRO     CG 1920   9.213   9.439   5.669
    5PRO    HG2 1921   9.310   9.390   5.683
    5PRO    HG3 1922   9.211   9.527   5.735
    5PRO     CB 1923   9.186   9.468   5.524
    5PRO    HB2 1924   9.209   9.381   5.461
    5PRO    HB3 1925   9.238   9.561   5.501
    5PRO     CA 1926   9.035   9.485   5.522
    5PRO     HA 1927   9.014   9.589   5.547
    5PRO      C 1928   8.975   9.455   5.383
    5PRO      O 1929   8.919   9.342   5.378
    6TRP      N 1930   8.998   9.524   5.273
    6TRP      H 1931   9.037   9.615   5.297
    6TRP     CA 1932   8.957   9.486   5.132
    6TRP     HA 1933   8.858   9.442   5.131
    6TRP     CB 1934   8.949   9.621   5.050
    6TRP    HB2 1935   9.043   9.675   5.064
    6TRP    HB3 1936   8.937   9.610   4.942
    6TRP     CG 1937   8.830   9.714   5.081
    6TRP    CD1 1938   8.832   9.819   5.167
    6TRP    HD1 1939   8.927   9.850   5.211
    6TRP    NE1 1940   8.706   9.880   5.188
    6TRP    HE1 1941   8.695   9.952   5.257
    6TRP    CE2 1942   8.614   9.799   5.129
    6TRP    CZ2 1943   8.474   9.802   5.124
    6TRP    HZ2 1944   8.419   9.868   5.189
    6TRP    CH2 1945   8.400   9.715   5.046
    6TRP    HH2 1946   8.293   9.723   5.056
    6TRP    CZ3 1947   8.459   9.612   4.972
    6TRP    HZ3 1948   8.401   9.540   4.916
    6TRP    CE3 1949   8.602   9.605   4.979
    6TRP    HE3 1950   8.654   9.530   4.920
    6TRP    CD2 1951   8.684   9.699   5.054
    6TRP      C 1952   9.044   9.389   5.065
    6TRP      O 1953   9.009   9.335   4.957
    7TRP      N 1954   9.163   9.360   5.124
    7TRP      H 1955   9.179   9.411   5.210
    7TRP     CA 1956   9.269   9.279   5.063
    7TRP     HA 1957   9.280   9.315   4.961
    7TRP     CB 1958   9.396   9.294   5.146
    7TRP    HB2 1959   9.404   9.213   5.218
    7TRP    HB3 1960   9.478   9.272   5.078
    7TRP     CG 1961   9.439   9.426   5.209
    7TRP    CD1 1962   9.530   9.442   5.309
    7TRP    HD1 1963   9.583   9.360   5.355
    7TRP    NE1 1964   9.550   9.571   5.348
    7TRP    HE1 1965   9.609   9.591   5.428
    7TRP    CE2 1966   9.475   9.653   5.264
    7TRP    CZ2 1967   9.468   9.791   5.260
    7TRP    HZ2 1968   9.526   9.849   5.331
    7TRP    CH2 1969   9.381   9.854   5.170
    7TRP    HH2 1970   9.381   9.962   5.166
    7TRP    CZ3 1971   9.305   9.775   5.083
    7TRP    HZ3 1972   9.231   9.821   5.017
    7TRP    CE3 1973   9.328   9.633   5.079
    7TRP    HE3 1974   9.289   9.573   5.000
    7TRP    CD2 1975   9.408   9.565   5.176
    7TRP      C 1976   9.219   9.137   5.056
    7TRP      O 1977   9.152   9.094   5.150
    8PRO      N 1978   9.261   9.052   4.959
    8PRO     CD 1979   9.364   9.076   4.859
    8PRO    HD2 1980   9.457   9.110   4.905
    8PRO    HD3 1981   9.324   9.148   4.787
    8PRO     CG 1982   9.392   8.939   4.800
    8PRO    HG2 1983   9.481   8.897   4.848
    8PRO    HG3 1984   9.416   8.948   4.695
    8PRO     CB 1985   9.263   8.856   4.823
    8PRO    HB2 1986   9.289   8.753   4.844
    8PRO    HB3 1987   9.191   8.877   4.742
    8PRO     CA 1988   9.205   8.915   4.950
    8PRO     HA 1989   9.098   8.915   4.934
    8PRO      C 1990   9.240   8.826   5.067
    8PRO      O 1991   9.361   8.796   5.092
    9TRP      N 1992   9.132   8.784   5.139
    9TRP      H 1993   9.042   8.817   5.115
    9TRP     CA 1994   9.137   8.686   5.250
    9TRP     HA 1995   9.220   8.615   5.240
    9TRP     CB 1996   9.148   8.769   5.383
    9TRP    HB2 1997   9.068   8.842   5.373
    9TRP    HB3 1998   9.127   8.699   5.465
    9TRP     CG 1999   9.276   8.851   5.406
    9TRP    CD1 2000   9.296   8.985   5.422
    9TRP    HD1 2001   9.220   9.060   5.431
    9TRP    NE1 2002   9.430   9.018   5.436
    9TRP    HE1 2003   9.472   9.109   5.452
    9TRP    CE2 2004   9.511   8.909   5.410
    9TRP    CZ2 2005   9.649   8.882   5.409
    9TRP    HZ2 2006   9.719   8.962   5.426
    9TRP    CH2 2007   9.694   8.752   5.408
    9TRP    HH2 2008   9.801   8.740   5.417
    9TRP    CZ3 2009   9.602   8.646   5.395
    9TRP    HZ3 2010   9.645   8.548   5.390
    9TRP    CE3 2011   9.462   8.671   5.390
    9TRP    HE3 2012   9.394   8.587   5.392
    9TRP    CD2 2013   9.415   8.803   5.394
    9TRP      C 2014   9.008   8.602   5.251
    9TRP      O 2015   8.899   8.652   5.266
   10ARG      N 2016   9.023   8.471   5.240
   10ARG      H 2017   9.115   8.439   5.208
   10ARG     CA 2018   8.918   8.379   5.253
   10ARG     HA 2019   8.831   8.419   5.202
   10ARG     CB 2020   8.965   8.247   5.196
   10ARG    HB2 2021   9.055   8.212   5.248
   10ARG    HB3 2022   8.888   8.175   5.226
   10ARG     CG 2023   8.990   8.241   5.047
   10ARG    HG2 2024   8.892   8.269   5.005
   10ARG    HG3 2025   9.053   8.319   5.007
   10ARG     CD 2026   9.035   8.097   4.998
   10ARG    HD2 2027   9.032   8.092   4.890
   10ARG    HD3 2028   9.133   8.070   5.040
   10ARG     NE 2029   8.932   7.995   5.034
   10ARG     HE 2030   8.842   8.008   4.990
   10ARG     CZ 2031   8.948   7.902   5.131
   10ARG    NH1 2032   9.037   7.921   5.226
   10ARG   HH11 2033   9.081   8.010   5.248
   10ARG   HH12 2034   9.054   7.841   5.285
   10ARG    NH2 2035   8.876   7.792   5.131
   10ARG   HH21 2036   8.822   7.759   5.054
   10ARG   HH22 2037   8.890   7.730   5.210
   10ARG      C 2038   8.881   8.362   5.400
   10ARG      O 2039   8.968   8.361   5.489
   11ARG      N 2040   8.752   8.349   5.437
   11ARG      H 2041   8.687   8.354   5.361
   11ARG     CA 2042   8.694   8.326   5.570
   11ARG     HA 2043   8.766   8.255   5.614
   11ARG     CB 2044   8.690   8.457   5.662
   11ARG    HB2 2045   8.629   8.438   5.751
   11ARG    HB3 2046   8.791   8.486   5.691
   11ARG     CG 2047   8.619   8.575   5.592
   11ARG    HG2 2048   8.668   8.589   5.496
   11ARG    HG3 2049   8.516   8.547   5.566
   11ARG     CD 2050   8.631   8.714   5.672
   11ARG    HD2 2051   8.553   8.703   5.746
   11ARG    HD3 2052   8.732   8.724   5.711
   11ARG     NE 2053   8.592   8.826   5.582
   11ARG     HE 2054   8.499   8.835   5.542
   11ARG     CZ 2055   8.677   8.907   5.526
   11ARG    NH1 2056   8.809   8.908   5.527
   11ARG   HH11 2057   8.865   8.845   5.582
   11ARG   HH12 2058   8.857   8.964   5.458
   11ARG    NH2 2059   8.629   9.001   5.449
   11ARG   HH21 2060   8.532   8.993   5.423
   11ARG   HH22 2061   8.677   9.087   5.430
   11ARG      C 2062   8.562   8.253   5.556
   11ARG      O 2063   8.492   8.287   5.458
   12LYS      N 2064   8.518   8.176   5.655
   12LYS      H 2065   8.586   8.160   5.727
   12LYS     CA 2066   8.384   8.111   5.661
   12LYS     HA 2067   8.396   8.038   5.583
   12LYS     CB 2068   8.373   8.047   5.802
   12LYS    HB2 2069   8.467   8.006   5.837
   12LYS    HB3 2070   8.356   8.126   5.874
   12LYS     CG 2071   8.278   7.935   5.820
   12LYS    HG2 2072   8.179   7.962   5.783
   12LYS    HG3 2073   8.317   7.846   5.768
   12LYS     CD 2074   8.264   7.896   5.962
   12LYS    HD2 2075   8.358   7.857   6.000
   12LYS    HD3 2076   8.228   7.980   6.021
   12LYS     CE 2077   8.148   7.787   5.968
   12LYS    HE2 2078   8.059   7.826   5.919
   12LYS    HE3 2079   8.163   7.692   5.915
   12LYS     NZ 2080   8.110   7.755   6.107
   12LYS    HZ1 2081   8.172   7.692   6.156
   12LYS    HZ2 2082   8.092   7.834   6.166
   12LYS    HZ3 2083   8.025   7.698   6.098
   12LYS      C 2084   8.259   8.190   5.623
   12LYS      O 2085   8.246   8.304   5.662
   13NHE      N 2086   8.166   8.112   5.562
   13NHE    HN1 2087   8.185   8.016   5.534
   13NHE    HN2 2088   8.073   8.145   5.540
    1ILE      N 2089  10.295  11.053   2.482
    1ILE     H1 2090  10.374  11.107   2.512
    1ILE     H2 2091  10.208  11.105   2.468
    1ILE     H3 2092  10.327  11.033   2.388
    1ILE     CA 2093  10.268  10.921   2.541
    1ILE     HA 2094  10.205  10.867   2.471
    1ILE     CB 2095  10.404  10.844   2.567
    1ILE     HB 2096  10.477  10.843   2.486
    1ILE    CG2 2097  10.470  10.917   2.685
    1ILE   HG21 2098  10.447  10.869   2.780
    1ILE   HG22 2099  10.579  10.925   2.677
    1ILE   HG23 2100  10.434  11.019   2.693
    1ILE    CG1 2101  10.388  10.690   2.586
    1ILE   HG12 2102  10.317  10.649   2.514
    1ILE   HG13 2103  10.351  10.670   2.687
    1ILE    CD1 2104  10.519  10.612   2.568
    1ILE   HD11 2105  10.594  10.637   2.643
    1ILE   HD12 2106  10.500  10.508   2.594
    1ILE   HD13 2107  10.565  10.616   2.469
    1ILE      C 2108  10.175  10.932   2.660
    1ILE      O 2109  10.183  11.031   2.731
    2LEU      N 2110  10.090  10.831   2.681
    2LEU      H 2111  10.096  10.754   2.617
    2LEU     CA 2112  10.023  10.809   2.810
    2LEU     HA 2113  10.040  10.889   2.883
    2LEU     CB 2114   9.872  10.808   2.796
    2LEU    HB2 2115   9.844  10.706   2.769
    2LEU    HB3 2116   9.827  10.829   2.893
    2LEU     CG 2117   9.807  10.899   2.693
    2LEU     HG 2118   9.833  10.878   2.589
    2LEU    CD1 2119   9.651  10.869   2.690
    2LEU   HD11 2120   9.637  10.781   2.627
    2LEU   HD12 2121   9.615  10.851   2.791
    2LEU   HD13 2122   9.588  10.950   2.651
    2LEU    CD2 2123   9.824  11.043   2.726
    2LEU   HD21 2124   9.809  11.051   2.833
    2LEU   HD22 2125   9.931  11.066   2.715
    2LEU   HD23 2126   9.764  11.114   2.670
    2LEU      C 2127  10.069  10.679   2.880
    2LEU      O 2128  10.116  10.582   2.818
    3ARG      N 2129  10.069  10.684   3.012
    3ARG      H 2130  10.033  10.767   3.056
    3ARG     CA 2131  10.123  10.577   3.101
    3ARG     HA 2132  10.139  10.488   3.040
    3ARG     CB 2133  10.262  10.612   3.161
    3ARG    HB2 2134  10.303  10.519   3.200
    3ARG    HB3 2135  10.325  10.636   3.075
    3ARG     CG 2136  10.273  10.726   3.268
    3ARG    HG2 2137  10.230  10.819   3.234
    3ARG    HG3 2138  10.224  10.693   3.360
    3ARG     CD 2139  10.415  10.756   3.314
    3ARG    HD2 2140  10.407  10.799   3.415
    3ARG    HD3 2141  10.466  10.662   3.336
    3ARG     NE 2142  10.490  10.844   3.231
    3ARG     HE 2143  10.472  10.941   3.247
    3ARG     CZ 2144  10.590  10.809   3.148
    3ARG    NH1 2145  10.648  10.691   3.153
    3ARG   HH11 2146  10.602  10.611   3.191
    3ARG   HH12 2147  10.728  10.666   3.098
    3ARG    NH2 2148  10.636  10.907   3.066
    3ARG   HH21 2149  10.602  11.001   3.069
    3ARG   HH22 2150  10.718  10.884   3.010
    3ARG      C 2151  10.029  10.541   3.214
    3ARG      O 2152   9.940  10.617   3.250
    4TRP      N 2153  10.033  10.414   3.254
    4TRP      H 2154  10.109  10.355   3.225
    4TRP     CA 2155   9.935  10.355   3.350
    4TRP     HA 2156   9.885  10.435   3.406
    4TRP     CB 2157   9.826  10.279   3.263
    4TRP    HB2 2158   9.873  10.223   3.182
    4TRP    HB3 2159   9.759  10.221   3.325
    4TRP     CG 2160   9.734  10.370   3.187
    4TRP    CD1 2161   9.629  10.435   3.240
    4TRP    HD1 2162   9.597  10.433   3.343
    4TRP    NE1 2163   9.561  10.497   3.140
    4TRP    HE1 2164   9.481  10.557   3.160
    4TRP    CE2 2165   9.619  10.478   3.018
    4TRP    CZ2 2166   9.594  10.520   2.887
    4TRP    HZ2 2167   9.511  10.580   2.853
    4TRP    CH2 2168   9.686  10.488   2.788
    4TRP    HH2 2169   9.672  10.515   2.685
    4TRP    CZ3 2170   9.811  10.435   2.819
    4TRP    HZ3 2171   9.877  10.411   2.736
    4TRP    CE3 2172   9.843  10.388   2.949
    4TRP    HE3 2173   9.939  10.342   2.973
    4TRP    CD2 2174   9.744  10.406   3.052
    4TRP      C 2175  10.007  10.250   3.452
    4TRP      O 2176  10.122  10.212   3.426
    5PRO      N 2177   9.937  10.202   3.553
    5PRO     CD 2178   9.824  10.274   3.605
    5PRO    HD2 2179   9.731  10.231   3.571
    5PRO    HD3 2180   9.823  10.383   3.587
    5PRO     CG 2181   9.834  10.250   3.759
    5PRO    HG2 2182   9.738  10.260   3.810
    5PRO    HG3 2183   9.901  10.325   3.802
    5PRO     CB 2184   9.885  10.108   3.765
    5PRO    HB2 2185   9.805  10.036   3.739
    5PRO    HB3 2186   9.933  10.097   3.861
    5PRO     CA 2187   9.984  10.105   3.650
    5PRO     HA 2188  10.080  10.141   3.689
    5PRO      C 2189  10.005   9.963   3.595
    5PRO      O 2190   9.945   9.944   3.485
    6TRP      N 2191  10.057   9.861   3.662
    6TRP      H 2192  10.108   9.896   3.743
    6TRP     CA 2193  10.061   9.716   3.618
    6TRP     HA 2194  10.082   9.709   3.511
    6TRP     CB 2195  10.183   9.649   3.693
    6TRP    HB2 2196  10.173   9.671   3.800
    6TRP    HB3 2197  10.189   9.540   3.686
    6TRP     CG 2198  10.323   9.688   3.645
    6TRP    CD1 2199  10.402   9.785   3.700
    6TRP    HD1 2200  10.370   9.834   3.792
    6TRP    NE1 2201  10.521   9.811   3.628
    6TRP    HE1 2202  10.581   9.887   3.654
    6TRP    CE2 2203  10.512   9.741   3.512
    6TRP    CZ2 2204  10.595   9.734   3.398
    6TRP    HZ2 2205  10.675   9.805   3.385
    6TRP    CH2 2206  10.572   9.645   3.295
    6TRP    HH2 2207  10.638   9.654   3.210
    6TRP    CZ3 2208  10.460   9.561   3.291
    6TRP    HZ3 2209  10.438   9.497   3.207
    6TRP    CE3 2210  10.372   9.570   3.404
    6TRP    HE3 2211  10.286   9.505   3.410
    6TRP    CD2 2212  10.397   9.657   3.519
    6TRP      C 2213   9.937   9.640   3.640
    6TRP      O 2214   9.921   9.527   3.589
    7TRP      N 2215   9.842   9.699   3.716
    7TRP      H 2216   9.867   9.790   3.752
    7TRP     CA 2217   9.720   9.631   3.763
    7TRP     HA 2218   9.751   9.534   3.800
    7TRP     CB 2219   9.653   9.718   3.870
    7TRP    HB2 2220   9.576   9.780   3.825
    7TRP    HB3 2221   9.594   9.649   3.930
    7TRP     CG 2222   9.731   9.796   3.974
    7TRP    CD1 2223   9.685   9.899   4.050
    7TRP    HD1 2224   9.584   9.936   4.044
    7TRP    NE1 2225   9.777   9.952   4.136
    7TRP    HE1 2226   9.752  10.035   4.190
    7TRP    CE2 2227   9.893   9.876   4.127
    7TRP    CZ2 2228  10.010   9.887   4.200
    7TRP    HZ2 2229  10.019   9.966   4.274
    7TRP    CH2 2230  10.118   9.803   4.171
    7TRP    HH2 2231  10.207   9.811   4.232
    7TRP    CZ3 2232  10.103   9.706   4.070
    7TRP    HZ3 2233  10.189   9.645   4.041
    7TRP    CE3 2234   9.975   9.687   4.010
    7TRP    HE3 2235   9.954   9.601   3.950
    7TRP    CD2 2236   9.866   9.777   4.030
    7TRP      C 2237   9.633   9.607   3.642
    7TRP      O 2238   9.627   9.695   3.556
    8PRO      N 2239   9.547   9.502   3.637
    8PRO     CD 2240   9.516   9.407   3.743
    8PRO    HD2 2241   9.487   9.459   3.835
    8PRO    HD3 2242   9.603   9.343   3.756
    8PRO     CG 2243   9.392   9.334   3.693
    8PRO    HG2 2244   9.303   9.378   3.739
    8PRO    HG3 2245   9.394   9.231   3.727
    8PRO     CB 2246   9.396   9.345   3.539
    8PRO    HB2 2247   9.295   9.355   3.500
    8PRO    HB3 2248   9.461   9.266   3.498
    8PRO     CA 2249   9.467   9.477   3.515
    8PRO     HA 2250   9.529   9.459   3.428
    8PRO      C 2251   9.365   9.584   3.483
    8PRO      O 2252   9.269   9.607   3.564
    9TRP      N 2253   9.386   9.649   3.366
    9TRP      H 2254   9.466   9.627   3.312
    9TRP     CA 2255   9.294   9.748   3.306
    9TRP     HA 2256   9.189   9.732   3.334
    9TRP     CB 2257   9.345   9.890   3.350
    9TRP    HB2 2258   9.451   9.887   3.327
    9TRP    HB3 2259   9.293   9.963   3.288
    9TRP     CG 2260   9.338   9.924   3.501
    9TRP    CD1 2261   9.435   9.955   3.592
    9TRP    HD1 2262   9.538   9.971   3.570
    9TRP    NE1 2263   9.385   9.975   3.720
    9TRP    HE1 2264   9.434  10.003   3.803
    9TRP    CE2 2265   9.251   9.939   3.726
    9TRP    CZ2 2266   9.151   9.938   3.825
    9TRP    HZ2 2267   9.175   9.966   3.926
    9TRP    CH2 2268   9.018   9.923   3.789
    9TRP    HH2 2269   8.947   9.933   3.869
    9TRP    CZ3 2270   8.986   9.897   3.654
    9TRP    HZ3 2271   8.881   9.882   3.634
    9TRP    CE3 2272   9.086   9.892   3.553
    9TRP    HE3 2273   9.056   9.883   3.450
    9TRP    CD2 2274   9.220   9.910   3.589
    9TRP      C 2275   9.298   9.738   3.152
    9TRP      O 2276   9.400   9.755   3.090
   10ARG      N 2277   9.183   9.713   3.092
   10ARG      H 2278   9.108   9.679   3.152
   10ARG     CA 2279   9.167   9.713   2.953
   10ARG     HA 2280   9.253   9.665   2.908
   10ARG     CB 2281   9.036   9.642   2.921
   10ARG    HB2 2282   8.953   9.693   2.971
   10ARG    HB3 2283   9.018   9.663   2.815
   10ARG     CG 2284   9.029   9.494   2.950
   10ARG    HG2 2285   9.111   9.454   2.889
   10ARG    HG3 2286   9.060   9.465   3.049
   10ARG     CD 2287   8.890   9.430   2.910
   10ARG    HD2 2288   8.896   9.322   2.913
   10ARG    HD3 2289   8.809   9.472   2.972
   10ARG     NE 2290   8.862   9.453   2.765
   10ARG     HE 2291   8.927   9.409   2.702
   10ARG     CZ 2292   8.769   9.540   2.719
   10ARG    NH1 2293   8.726   9.638   2.795
   10ARG   HH11 2294   8.772   9.670   2.879
   10ARG   HH12 2295   8.647   9.688   2.759
   10ARG    NH2 2296   8.719   9.526   2.597
   10ARG   HH21 2297   8.729   9.444   2.540
   10ARG   HH22 2298   8.655   9.598   2.568
   10ARG      C 2299   9.162   9.856   2.901
   10ARG      O 2300   9.104   9.947   2.965
   11ARG      N 2301   9.222   9.889   2.785
   11ARG      H 2302   9.269   9.813   2.740
   11ARG     CA 2303   9.225  10.018   2.713
   11ARG     HA 2304   9.123  10.055   2.729
   11ARG     CB 2305   9.327  10.123   2.777
   11ARG    HB2 2306   9.339  10.208   2.708
   11ARG    HB3 2307   9.291  10.157   2.874
   11ARG     CG 2308   9.470  10.065   2.790
   11ARG    HG2 2309   9.461   9.973   2.846
   11ARG    HG3 2310   9.508  10.035   2.692
   11ARG     CD 2311   9.571  10.161   2.871
   11ARG    HD2 2312   9.600  10.231   2.796
   11ARG    HD3 2313   9.518  10.202   2.957
   11ARG     NE 2314   9.692  10.083   2.909
   11ARG     HE 2315   9.755  10.042   2.842
   11ARG     CZ 2316   9.715  10.038   3.030
   11ARG    NH1 2317   9.640  10.041   3.139
   11ARG   HH11 2318   9.552  10.090   3.145
   11ARG   HH12 2319   9.664   9.980   3.215
   11ARG    NH2 2320   9.825   9.971   3.050
   11ARG   HH21 2321   9.875   9.943   2.967
   11ARG   HH22 2322   9.869   9.962   3.140
   11ARG      C 2323   9.242   9.993   2.565
   11ARG      O 2324   9.317   9.898   2.534
   12LYS      N 2325   9.195  10.082   2.477
   12LYS      H 2326   9.138  10.153   2.518
   12LYS     CA 2327   9.218  10.078   2.330
   12LYS     HA 2328   9.158   9.992   2.304
   12LYS     CB 2329   9.161  10.211   2.274
   12LYS    HB2 2330   9.071  10.243   2.326
   12LYS    HB3 2331   9.230  10.291   2.298
   12LYS     CG 2332   9.121  10.214   2.131
   12LYS    HG2 2333   9.202  10.179   2.068
   12LYS    HG3 2334   9.031  10.154   2.117
   12LYS     CD 2335   9.086  10.351   2.086
   12LYS    HD2 2336   8.998  10.386   2.139
   12LYS    HD3 2337   9.170  10.418   2.100
   12LYS     CE 2338   9.062  10.342   1.929
   12LYS    HE2 2339   9.149  10.297   1.882
   12LYS    HE3 2340   8.980  10.280   1.892
   12LYS     NZ 2341   9.046  10.477   1.868
   12LYS    HZ1 2342   8.956  10.519   1.880
   12LYS    HZ2 2343   9.117  10.544   1.894
   12LYS    HZ3 2344   9.049  10.460   1.768
   12LYS      C 2345   9.357  10.047   2.274
   12LYS      O 2346   9.454  10.097   2.325
   13NHE      N 2347   9.350   9.976   2.159
   13NHE    HN1 2348   9.264   9.937   2.122
   13NHE    HN2 2349   9.432   9.956   2.103
    1ILE      N 2350   0.446   8.506   5.393
    1ILE     H1 2351   0.385   8.449   5.449
    1ILE     H2 2352   0.405   8.549   5.311
    1ILE     H3 2353   0.458   8.582   5.458
    1ILE     CA 2354   0.583   8.460   5.364
    1ILE     HA 2355   0.641   8.547   5.337
    1ILE     CB 2356   0.646   8.388   5.490
    1ILE     HB 2357   0.634   8.438   5.586
    1ILE    CG2 2358   0.570   8.254   5.501
    1ILE   HG21 2359   0.625   8.173   5.453
    1ILE   HG22 2360   0.550   8.223   5.605
    1ILE   HG23 2361   0.474   8.259   5.453
    1ILE    CG1 2362   0.801   8.376   5.488
    1ILE   HG12 2363   0.847   8.468   5.452
    1ILE   HG13 2364   0.829   8.295   5.422
    1ILE    CD1 2365   0.862   8.347   5.626
    1ILE   HD11 2366   0.832   8.250   5.666
    1ILE   HD12 2367   0.968   8.330   5.612
    1ILE   HD13 2368   0.848   8.423   5.703
    1ILE      C 2369   0.589   8.381   5.235
    1ILE      O 2370   0.492   8.312   5.205
    2LEU      N 2371   0.699   8.392   5.161
    2LEU      H 2372   0.772   8.449   5.198
    2LEU     CA 2373   0.735   8.294   5.056
    2LEU     HA 2374   0.657   8.220   5.036
    2LEU     CB 2375   0.753   8.360   4.921
    2LEU    HB2 2376   0.856   8.396   4.917
    2LEU    HB3 2377   0.742   8.285   4.843
    2LEU     CG 2378   0.665   8.479   4.885
    2LEU     HG 2379   0.679   8.567   4.948
    2LEU    CD1 2380   0.713   8.537   4.746
    2LEU   HD11 2381   0.799   8.601   4.765
    2LEU   HD12 2382   0.739   8.455   4.679
    2LEU   HD13 2383   0.638   8.595   4.690
    2LEU    CD2 2384   0.522   8.442   4.872
    2LEU   HD21 2385   0.520   8.347   4.819
    2LEU   HD22 2386   0.486   8.415   4.972
    2LEU   HD23 2387   0.456   8.516   4.827
    2LEU      C 2388   0.862   8.213   5.090
    2LEU      O 2389   0.950   8.254   5.168
    3ARG      N 2390   0.863   8.089   5.044
    3ARG      H 2391   0.786   8.061   4.985
    3ARG     CA 2392   0.967   7.987   5.077
    3ARG     HA 2393   1.051   8.039   5.124
    3ARG     CB 2394   0.919   7.882   5.181
    3ARG    HB2 2395   1.008   7.831   5.216
    3ARG    HB3 2396   0.884   7.941   5.266
    3ARG     CG 2397   0.810   7.778   5.139
    3ARG    HG2 2398   0.720   7.824   5.100
    3ARG    HG3 2399   0.852   7.709   5.067
    3ARG     CD 2400   0.765   7.685   5.251
    3ARG    HD2 2401   0.728   7.593   5.204
    3ARG    HD3 2402   0.854   7.647   5.303
    3ARG     NE 2403   0.665   7.737   5.339
    3ARG     HE 2404   0.572   7.727   5.305
    3ARG     CZ 2405   0.685   7.778   5.465
    3ARG    NH1 2406   0.796   7.754   5.533
    3ARG   HH11 2407   0.882   7.734   5.486
    3ARG   HH12 2408   0.808   7.777   5.629
    3ARG    NH2 2409   0.579   7.839   5.525
    3ARG   HH21 2410   0.489   7.848   5.481
    3ARG   HH22 2411   0.590   7.862   5.623
    3ARG      C 2412   1.018   7.915   4.954
    3ARG      O 2413   0.955   7.912   4.849
    4TRP      N 2414   1.146   7.876   4.960
    4TRP      H 2415   1.194   7.877   5.049
    4TRP     CA 2416   1.220   7.821   4.844
    4TRP     HA 2417   1.149   7.786   4.768
    4TRP     CB 2418   1.304   7.940   4.782
    4TRP    HB2 2419   1.351   8.000   4.861
    4TRP    HB3 2420   1.372   7.906   4.704
    4TRP     CG 2421   1.221   8.043   4.711
    4TRP    CD1 2422   1.171   8.031   4.588
    4TRP    HD1 2423   1.181   7.945   4.521
    4TRP    NE1 2424   1.113   8.148   4.551
    4TRP    HE1 2425   1.063   8.157   4.462
    4TRP    CE2 2426   1.120   8.242   4.650
    4TRP    CZ2 2427   1.074   8.373   4.667
    4TRP    HZ2 2428   1.023   8.434   4.594
    4TRP    CH2 2429   1.091   8.434   4.791
    4TRP    HH2 2430   1.062   8.535   4.810
    4TRP    CZ3 2431   1.131   8.362   4.903
    4TRP    HZ3 2432   1.143   8.415   4.996
    4TRP    CE3 2433   1.179   8.228   4.893
    4TRP    HE3 2434   1.215   8.172   4.980
    4TRP    CD2 2435   1.178   8.166   4.763
    4TRP      C 2436   1.320   7.700   4.888
    4TRP      O 2437   1.344   7.684   5.008
    5PRO      N 2438   1.381   7.630   4.794
    5PRO     CD 2439   1.325   7.620   4.661
    5PRO    HD2 2440   1.376   7.686   4.592
    5PRO    HD3 2441   1.216   7.637   4.653
    5PRO     CG 2442   1.355   7.473   4.620
    5PRO    HG2 2443   1.358   7.459   4.511
    5PRO    HG3 2444   1.275   7.409   4.658
    5PRO     CB 2445   1.490   7.450   4.682
    5PRO    HB2 2446   1.569   7.502   4.626
    5PRO    HB3 2447   1.500   7.343   4.695
    5PRO     CA 2448   1.476   7.522   4.815
    5PRO     HA 2449   1.431   7.453   4.886
    5PRO      C 2450   1.613   7.567   4.871
    5PRO      O 2451   1.633   7.691   4.856
    6TRP      N 2452   1.710   7.487   4.910
    6TRP      H 2453   1.674   7.393   4.924
    6TRP     CA 2454   1.852   7.527   4.946
    6TRP     HA 2455   1.852   7.619   5.003
    6TRP     CB 2456   1.908   7.413   5.042
    6TRP    HB2 2457   1.892   7.317   4.992
    6TRP    HB3 2458   2.015   7.419   5.063
    6TRP     CG 2459   1.850   7.409   5.184
    6TRP    CD1 2460   1.748   7.330   5.226
    6TRP    HD1 2461   1.707   7.255   5.158
    6TRP    NE1 2462   1.705   7.355   5.359
    6TRP    HE1 2463   1.624   7.310   5.396
    6TRP    CE2 2464   1.770   7.467   5.399
    6TRP    CZ2 2465   1.763   7.545   5.516
    6TRP    HZ2 2466   1.682   7.529   5.587
    6TRP    CH2 2467   1.848   7.650   5.542
    6TRP    HH2 2468   1.828   7.706   5.632
    6TRP    CZ3 2469   1.945   7.693   5.450
    6TRP    HZ3 2470   2.007   7.779   5.467
    6TRP    CE3 2471   1.951   7.618   5.328
    6TRP    HE3 2472   2.026   7.643   5.254
    6TRP    CD2 2473   1.868   7.502   5.300
    6TRP      C 2474   1.943   7.550   4.833
    6TRP      O 2475   2.054   7.603   4.850
    7TRP      N 2476   1.899   7.511   4.710
    7TRP      H 2477   1.807   7.469   4.710
    7TRP     CA 2478   1.982   7.511   4.589
    7TRP     HA 2479   2.077   7.465   4.617
    7TRP     CB 2480   1.909   7.434   4.479
    7TRP    HB2 2481   1.854   7.503   4.416
    7TRP    HB3 2482   1.986   7.398   4.412
    7TRP     CG 2483   1.827   7.309   4.506
    7TRP    CD1 2484   1.734   7.253   4.424
    7TRP    HD1 2485   1.708   7.295   4.327
    7TRP    NE1 2486   1.674   7.141   4.472
    7TRP    HE1 2487   1.597   7.099   4.421
    7TRP    CE2 2488   1.735   7.108   4.593
    7TRP    CZ2 2489   1.715   6.999   4.675
    7TRP    HZ2 2490   1.639   6.926   4.647
    7TRP    CH2 2491   1.785   6.989   4.796
    7TRP    HH2 2492   1.769   6.900   4.856
    7TRP    CZ3 2493   1.878   7.089   4.829
    7TRP    HZ3 2494   1.927   7.086   4.927
    7TRP    CE3 2495   1.909   7.190   4.733
    7TRP    HE3 2496   1.994   7.254   4.746
    7TRP    CD2 2497   1.832   7.209   4.614
    7TRP      C 2498   2.010   7.654   4.553
    7TRP      O 2499   1.920   7.737   4.567
    8PRO      N 2500   2.125   7.690   4.488
    8PRO     CD 2501   2.227   7.602   4.434
    8PRO    HD2 2502   2.183   7.526   4.369
    8PRO    HD3 2503   2.281   7.559   4.519
    8PRO     CG 2504   2.312   7.692   4.346
    8PRO    HG2 2505   2.280   7.680   4.242
    8PRO    HG3 2506   2.415   7.660   4.349
    8PRO     CB 2507   2.293   7.835   4.402
    8PRO    HB2 2508   2.293   7.906   4.320
    8PRO    HB3 2509   2.362   7.851   4.486
    8PRO     CA 2510   2.153   7.832   4.460
    8PRO     HA 2511   2.160   7.892   4.550
    8PRO      C 2512   2.057   7.898   4.362
    8PRO      O 2513   2.049   7.855   4.243
    9TRP      N 2514   1.985   8.000   4.415
    9TRP      H 2515   1.995   8.022   4.511
    9TRP     CA 2516   1.894   8.088   4.338
    9TRP     HA 2517   1.923   8.098   4.233
    9TRP     CB 2518   1.750   8.028   4.352
    9TRP    HB2 2519   1.740   8.013   4.459
    9TRP    HB3 2520   1.681   8.105   4.317
    9TRP     CG 2521   1.724   7.890   4.289
    9TRP    CD1 2522   1.686   7.771   4.344
    9TRP    HD1 2523   1.657   7.754   4.445
    9TRP    NE1 2524   1.677   7.668   4.250
    9TRP    HE1 2525   1.648   7.572   4.264
    9TRP    CE2 2526   1.729   7.709   4.128
    9TRP    CZ2 2527   1.746   7.652   4.001
    9TRP    HZ2 2528   1.721   7.549   3.985
    9TRP    CH2 2529   1.774   7.732   3.892
    9TRP    HH2 2530   1.776   7.682   3.797
    9TRP    CZ3 2531   1.798   7.870   3.912
    9TRP    HZ3 2532   1.824   7.925   3.823
    9TRP    CE3 2533   1.787   7.930   4.041
    9TRP    HE3 2534   1.795   8.037   4.050
    9TRP    CD2 2535   1.756   7.848   4.151
    9TRP      C 2536   1.897   8.230   4.397
    9TRP      O 2537   1.865   8.253   4.511
   10ARG      N 2538   1.933   8.327   4.314
   10ARG      H 2539   1.978   8.298   4.227
   10ARG     CA 2540   1.928   8.463   4.347
   10ARG     HA 2541   1.964   8.476   4.449
   10ARG     CB 2542   2.012   8.539   4.245
   10ARG    HB2 2543   1.974   8.521   4.144
   10ARG    HB3 2544   1.989   8.644   4.263
   10ARG     CG 2545   2.161   8.515   4.247
   10ARG    HG2 2546   2.189   8.543   4.350
   10ARG    HG3 2547   2.191   8.411   4.246
   10ARG     CD 2548   2.238   8.601   4.140
   10ARG    HD2 2549   2.345   8.597   4.158
   10ARG    HD3 2550   2.210   8.572   4.038
   10ARG     NE 2551   2.212   8.747   4.162
   10ARG     HE 2552   2.246   8.783   4.249
   10ARG     CZ 2553   2.135   8.823   4.080
   10ARG    NH1 2554   2.046   8.766   4.002
   10ARG   HH11 2555   2.012   8.671   4.011
   10ARG   HH12 2556   2.004   8.828   3.934
   10ARG    NH2 2557   2.149   8.954   4.078
   10ARG   HH21 2558   2.226   9.004   4.118
   10ARG   HH22 2559   2.084   9.004   4.020
   10ARG      C 2560   1.784   8.513   4.343
   10ARG      O 2561   1.704   8.473   4.256
   11ARG      N 2562   1.739   8.601   4.435
   11ARG      H 2563   1.807   8.627   4.504
   11ARG     CA 2564   1.608   8.667   4.447
   11ARG     HA 2565   1.583   8.688   4.342
   11ARG     CB 2566   1.494   8.571   4.507
   11ARG    HB2 2567   1.405   8.631   4.531
   11ARG    HB3 2568   1.469   8.493   4.435
   11ARG     CG 2569   1.536   8.508   4.642
   11ARG    HG2 2570   1.631   8.460   4.626
   11ARG    HG3 2571   1.557   8.587   4.715
   11ARG     CD 2572   1.433   8.397   4.695
   11ARG    HD2 2573   1.356   8.457   4.740
   11ARG    HD3 2574   1.402   8.335   4.611
   11ARG     NE 2575   1.498   8.319   4.804
   11ARG     HE 2576   1.528   8.360   4.892
   11ARG     CZ 2577   1.546   8.198   4.789
   11ARG    NH1 2578   1.556   8.122   4.681
   11ARG   HH11 2579   1.518   8.147   4.591
   11ARG   HH12 2580   1.617   8.043   4.685
   11ARG    NH2 2581   1.600   8.141   4.893
   11ARG   HH21 2582   1.619   8.201   4.972
   11ARG   HH22 2583   1.608   8.041   4.904
   11ARG      C 2584   1.624   8.800   4.517
   11ARG      O 2585   1.708   8.802   4.609
   12LYS      N 2586   1.537   8.898   4.494
   12LYS      H 2587   1.475   8.879   4.417
   12LYS     CA 2588   1.531   9.028   4.566
   12LYS     HA 2589   1.622   9.073   4.530
   12LYS     CB 2590   1.403   9.100   4.516
   12LYS    HB2 2591   1.384   9.083   4.411
   12LYS    HB3 2592   1.317   9.053   4.561
   12LYS     CG 2593   1.399   9.248   4.528
   12LYS    HG2 2594   1.421   9.279   4.630
   12LYS    HG3 2595   1.468   9.293   4.457
   12LYS     CD 2596   1.265   9.302   4.495
   12LYS    HD2 2597   1.242   9.283   4.390
   12LYS    HD3 2598   1.189   9.260   4.560
   12LYS     CE 2599   1.269   9.457   4.528
   12LYS    HE2 2600   1.302   9.471   4.631
   12LYS    HE3 2601   1.338   9.521   4.472
   12LYS     NZ 2602   1.135   9.520   4.518
   12LYS    HZ1 2603   1.103   9.540   4.424
   12LYS    HZ2 2604   1.061   9.470   4.566
   12LYS    HZ3 2605   1.147   9.613   4.558
   12LYS      C 2606   1.544   9.031   4.719
   12LYS      O 2607   1.485   8.949   4.785
   13NHE      N 2608   1.610   9.142   4.761
   13NHE    HN1 2609   1.656   9.206   4.698
   13NHE    HN2 2610   1.618   9.165   4.859
    1ILE      N 2611   4.416   3.627   3.019
    1ILE     H1 2612   4.392   3.724   3.007
    1ILE     H2 2613   4.495   3.608   3.081
    1ILE     H3 2614   4.335   3.599   3.072
    1ILE     CA 2615   4.417   3.536   2.904
    1ILE     HA 2616   4.408   3.435   2.942
    1ILE     CB 2617   4.298   3.570   2.805
    1ILE     HB 2618   4.199   3.585   2.850
    1ILE    CG2 2619   4.337   3.703   2.739
    1ILE   HG21 2620   4.386   3.688   2.643
    1ILE   HG22 2621   4.252   3.771   2.723
    1ILE   HG23 2622   4.407   3.758   2.800
    1ILE    CG1 2623   4.262   3.456   2.706
    1ILE   HG12 2624   4.262   3.358   2.756
    1ILE   HG13 2625   4.334   3.454   2.625
    1ILE    CD1 2626   4.122   3.471   2.643
    1ILE   HD11 2627   4.114   3.559   2.580
    1ILE   HD12 2628   4.111   3.393   2.567
    1ILE   HD13 2629   4.037   3.468   2.711
    1ILE      C 2630   4.555   3.530   2.839
    1ILE      O 2631   4.623   3.630   2.839
    2LEU      N 2632   4.592   3.413   2.786
    2LEU      H 2633   4.525   3.339   2.790
    2LEU     CA 2634   4.702   3.401   2.689
    2LEU     HA 2635   4.758   3.495   2.674
    2LEU     CB 2636   4.810   3.306   2.736
    2LEU    HB2 2637   4.778   3.206   2.706
    2LEU    HB3 2638   4.902   3.328   2.684
    2LEU     CG 2639   4.840   3.298   2.885
    2LEU     HG 2640   4.759   3.262   2.947
    2LEU    CD1 2641   4.946   3.182   2.909
    2LEU   HD11 2642   4.891   3.088   2.910
    2LEU   HD12 2643   5.020   3.182   2.828
    2LEU   HD13 2644   5.005   3.189   3.001
    2LEU    CD2 2645   4.899   3.424   2.938
    2LEU   HD21 2646   4.970   3.457   2.863
    2LEU   HD22 2647   4.821   3.500   2.934
    2LEU   HD23 2648   4.943   3.419   3.037
    2LEU      C 2649   4.654   3.359   2.548
    2LEU      O 2650   4.549   3.296   2.530
    3ARG      N 2651   4.724   3.408   2.448
    3ARG      H 2652   4.807   3.462   2.471
    3ARG     CA 2653   4.689   3.394   2.304
    3ARG     HA 2654   4.611   3.317   2.297
    3ARG     CB 2655   4.627   3.523   2.243
    3ARG    HB2 2656   4.581   3.493   2.149
    3ARG    HB3 2657   4.543   3.548   2.309
    3ARG     CG 2658   4.718   3.648   2.222
    3ARG    HG2 2659   4.769   3.679   2.313
    3ARG    HG3 2660   4.790   3.628   2.144
    3ARG     CD 2661   4.645   3.771   2.169
    3ARG    HD2 2662   4.720   3.832   2.117
    3ARG    HD3 2663   4.582   3.741   2.085
    3ARG     NE 2664   4.578   3.851   2.266
    3ARG     HE 2665   4.637   3.916   2.314
    3ARG     CZ 2666   4.445   3.857   2.286
    3ARG    NH1 2667   4.358   3.807   2.200
    3ARG   HH11 2668   4.383   3.735   2.135
    3ARG   HH12 2669   4.259   3.818   2.209
    3ARG    NH2 2670   4.404   3.926   2.394
    3ARG   HH21 2671   4.467   3.976   2.455
    3ARG   HH22 2672   4.304   3.939   2.405
    3ARG      C 2673   4.806   3.351   2.219
    3ARG      O 2674   4.922   3.365   2.256
    4TRP      N 2675   4.775   3.275   2.113
    4TRP      H 2676   4.679   3.267   2.083
    4TRP     CA 2677   4.877   3.207   2.028
    4TRP     HA 2678   4.975   3.254   2.043
    4TRP     CB 2679   4.887   3.057   2.080
    4TRP    HB2 2680   4.787   3.016   2.099
    4TRP    HB3 2681   4.949   2.996   2.014
    4TRP     CG 2682   4.952   3.042   2.213
    4TRP    CD1 2683   5.084   3.044   2.235
    4TRP    HD1 2684   5.162   3.060   2.162
    4TRP    NE1 2685   5.108   3.014   2.366
    4TRP    HE1 2686   5.202   3.017   2.404
    4TRP    CE2 2687   4.993   2.993   2.436
    4TRP    CZ2 2688   4.960   2.964   2.568
    4TRP    HZ2 2689   5.029   2.945   2.650
    4TRP    CH2 2690   4.826   2.961   2.605
    4TRP    HH2 2691   4.793   2.936   2.704
    4TRP    CZ3 2692   4.726   3.007   2.519
    4TRP    HZ3 2693   4.623   3.001   2.554
    4TRP    CE3 2694   4.752   3.038   2.383
    4TRP    HE3 2695   4.673   3.070   2.314
    4TRP    CD2 2696   4.888   3.027   2.337
    4TRP      C 2697   4.836   3.209   1.871
    4TRP      O 2698   4.721   3.241   1.841
    5PRO      N 2699   4.923   3.168   1.781
    5PRO     CD 2700   5.064   3.170   1.809
    5PRO    HD2 2701   5.102   3.072   1.835
    5PRO    HD3 2702   5.097   3.242   1.886
    5PRO     CG 2703   5.128   3.212   1.673
    5PRO    HG2 2704   5.232   3.179   1.663
    5PRO    HG3 2705   5.127   3.321   1.666
    5PRO     CB 2706   5.038   3.141   1.575
    5PRO    HB2 2707   5.058   3.033   1.573
    5PRO    HB3 2708   5.047   3.195   1.482
    5PRO     CA 2709   4.901   3.159   1.638
    5PRO     HA 2710   4.862   3.255   1.605
    5PRO      C 2711   4.803   3.049   1.594
    5PRO      O 2712   4.784   2.962   1.684
    6TRP      N 2713   4.759   3.030   1.471
    6TRP      H 2714   4.776   3.113   1.415
    6TRP     CA 2715   4.678   2.911   1.421
    6TRP     HA 2716   4.604   2.882   1.495
    6TRP     CB 2717   4.599   2.962   1.294
    6TRP    HB2 2718   4.670   3.008   1.226
    6TRP    HB3 2719   4.549   2.884   1.235
    6TRP     CG 2720   4.481   3.058   1.319
    6TRP    CD1 2721   4.487   3.193   1.313
    6TRP    HD1 2722   4.578   3.242   1.277
    6TRP    NE1 2723   4.368   3.258   1.354
    6TRP    HE1 2724   4.364   3.359   1.363
    6TRP    CE2 2725   4.287   3.163   1.407
    6TRP    CZ2 2726   4.162   3.167   1.471
    6TRP    HZ2 2727   4.121   3.262   1.503
    6TRP    CH2 2728   4.092   3.053   1.507
    6TRP    HH2 2729   4.001   3.070   1.561
    6TRP    CZ3 2730   4.144   2.924   1.489
    6TRP    HZ3 2731   4.092   2.836   1.522
    6TRP    CE3 2732   4.273   2.918   1.427
    6TRP    HE3 2733   4.317   2.821   1.406
    6TRP    CD2 2734   4.347   3.035   1.382
    6TRP      C 2735   4.755   2.790   1.390
    6TRP      O 2736   4.698   2.681   1.369
    7TRP      N 2737   4.890   2.802   1.388
    7TRP      H 2738   4.924   2.896   1.407
    7TRP     CA 2739   4.981   2.697   1.343
    7TRP     HA 2740   4.941   2.658   1.250
    7TRP     CB 2741   5.122   2.757   1.326
    7TRP    HB2 2742   5.180   2.740   1.415
    7TRP    HB3 2743   5.172   2.693   1.254
    7TRP     CG 2744   5.146   2.896   1.270
    7TRP    CD1 2745   5.260   2.969   1.281
    7TRP    HD1 2746   5.348   2.934   1.332
    7TRP    NE1 2747   5.255   3.092   1.222
    7TRP    HE1 2748   5.333   3.156   1.234
    7TRP    CE2 2749   5.133   3.104   1.157
    7TRP    CZ2 2750   5.085   3.206   1.077
    7TRP    HZ2 2751   5.147   3.294   1.062
    7TRP    CH2 2752   4.955   3.199   1.025
    7TRP    HH2 2753   4.922   3.279   0.960
    7TRP    CZ3 2754   4.877   3.086   1.052
    7TRP    HZ3 2755   4.773   3.082   1.019
    7TRP    CE3 2756   4.937   2.975   1.119
    7TRP    HE3 2757   4.888   2.879   1.122
    7TRP    CD2 2758   5.065   2.982   1.183
    7TRP      C 2759   4.977   2.586   1.445
    7TRP      O 2760   4.969   2.616   1.564
    8PRO      N 2761   4.999   2.456   1.410
    8PRO     CD 2762   5.042   2.406   1.280
    8PRO    HD2 2763   5.132   2.458   1.245
    8PRO    HD3 2764   4.958   2.417   1.211
    8PRO     CG 2765   5.083   2.262   1.307
    8PRO    HG2 2766   5.191   2.257   1.319
    8PRO    HG3 2767   5.060   2.200   1.221
    8PRO     CB 2768   5.004   2.219   1.433
    8PRO    HB2 2769   5.065   2.152   1.493
    8PRO    HB3 2770   4.903   2.186   1.404
    8PRO     CA 2771   4.987   2.348   1.510
    8PRO     HA 2772   4.887   2.342   1.552
    8PRO      C 2773   5.090   2.354   1.622
    8PRO      O 2774   5.213   2.342   1.595
    9TRP      N 2775   5.037   2.373   1.745
    9TRP      H 2776   4.939   2.387   1.755
    9TRP     CA 2777   5.114   2.370   1.872
    9TRP     HA 2778   5.202   2.306   1.866
    9TRP     CB 2779   5.152   2.518   1.906
    9TRP    HB2 2780   5.058   2.571   1.896
    9TRP    HB3 2781   5.187   2.518   2.010
    9TRP     CG 2782   5.249   2.591   1.810
    9TRP    CD1 2783   5.234   2.702   1.733
    9TRP    HD1 2784   5.150   2.768   1.733
    9TRP    NE1 2785   5.346   2.731   1.657
    9TRP    HE1 2786   5.362   2.810   1.595
    9TRP    CE2 2787   5.438   2.627   1.664
    9TRP    CZ2 2788   5.566   2.601   1.611
    9TRP    HZ2 2789   5.610   2.671   1.542
    9TRP    CH2 2790   5.642   2.499   1.663
    9TRP    HH2 2791   5.742   2.492   1.624
    9TRP    CZ3 2792   5.587   2.414   1.761
    9TRP    HZ3 2793   5.651   2.334   1.794
    9TRP    CE3 2794   5.456   2.435   1.813
    9TRP    HE3 2795   5.422   2.375   1.895
    9TRP    CD2 2796   5.379   2.540   1.761
    9TRP      C 2797   5.027   2.311   1.984
    9TRP      O 2798   4.923   2.363   2.018
   10ARG      N 2799   5.073   2.204   2.045
   10ARG      H 2800   5.149   2.155   1.997
   10ARG     CA 2801   5.013   2.146   2.158
   10ARG     HA 2802   4.906   2.147   2.144
   10ARG     CB 2803   5.070   2.006   2.174
   10ARG    HB2 2804   5.179   2.010   2.185
   10ARG    HB3 2805   5.036   1.974   2.273
   10ARG     CG 2806   5.034   1.905   2.069
   10ARG    HG2 2807   4.924   1.903   2.072
   10ARG    HG3 2808   5.050   1.936   1.966
   10ARG     CD 2809   5.095   1.762   2.097
   10ARG    HD2 2810   5.051   1.688   2.031
   10ARG    HD3 2811   5.205   1.764   2.093
   10ARG     NE 2812   5.050   1.712   2.230
   10ARG     HE 2813   4.951   1.696   2.238
   10ARG     CZ 2814   5.129   1.702   2.339
   10ARG    NH1 2815   5.239   1.774   2.347
   10ARG   HH11 2816   5.260   1.854   2.288
   10ARG   HH12 2817   5.300   1.751   2.423
   10ARG    NH2 2818   5.099   1.621   2.438
   10ARG   HH21 2819   5.030   1.548   2.433
   10ARG   HH22 2820   5.160   1.624   2.518
   10ARG      C 2821   5.045   2.229   2.282
   10ARG      O 2822   5.156   2.282   2.298
   11ARG      N 2823   4.951   2.249   2.377
   11ARG      H 2824   4.862   2.206   2.357
   11ARG     CA 2825   4.960   2.319   2.506
   11ARG     HA 2826   5.061   2.291   2.540
   11ARG     CB 2827   4.955   2.479   2.492
   11ARG    HB2 2828   4.943   2.523   2.591
   11ARG    HB3 2829   5.046   2.515   2.445
   11ARG     CG 2830   4.831   2.526   2.413
   11ARG    HG2 2831   4.832   2.473   2.319
   11ARG    HG3 2832   4.740   2.492   2.463
   11ARG     CD 2833   4.833   2.683   2.380
   11ARG    HD2 2834   4.798   2.726   2.472
   11ARG    HD3 2835   4.934   2.712   2.349
   11ARG     NE 2836   4.731   2.712   2.276
   11ARG     HE 2837   4.631   2.697   2.289
   11ARG     CZ 2838   4.759   2.735   2.150
   11ARG    NH1 2839   4.874   2.731   2.085
   11ARG   HH11 2840   4.963   2.716   2.130
   11ARG   HH12 2841   4.872   2.727   1.985
   11ARG    NH2 2842   4.659   2.759   2.069
   11ARG   HH21 2843   4.567   2.740   2.105
   11ARG   HH22 2844   4.669   2.810   1.983
   11ARG      C 2845   4.861   2.260   2.603
   11ARG      O 2846   4.751   2.225   2.554
   12LYS      N 2847   4.884   2.266   2.734
   12LYS      H 2848   4.976   2.298   2.757
   12LYS     CA 2849   4.789   2.226   2.841
   12LYS     HA 2850   4.789   2.119   2.827
   12LYS     CB 2851   4.854   2.269   2.976
   12LYS    HB2 2852   4.962   2.256   2.976
   12LYS    HB3 2853   4.845   2.377   2.986
   12LYS     CG 2854   4.811   2.198   3.099
   12LYS    HG2 2855   4.702   2.199   3.108
   12LYS    HG3 2856   4.850   2.095   3.097
   12LYS     CD 2857   4.866   2.260   3.221
   12LYS    HD2 2858   4.975   2.252   3.222
   12LYS    HD3 2859   4.834   2.364   3.228
   12LYS     CE 2860   4.800   2.186   3.344
   12LYS    HE2 2861   4.692   2.188   3.334
   12LYS    HE3 2862   4.820   2.079   3.358
   12LYS     NZ 2863   4.831   2.253   3.473
   12LYS    HZ1 2864   4.923   2.234   3.511
   12LYS    HZ2 2865   4.816   2.352   3.474
   12LYS    HZ3 2866   4.770   2.207   3.541
   12LYS      C 2867   4.641   2.267   2.833
   12LYS      O 2868   4.613   2.379   2.798
   13NHE      N 2869   4.560   2.172   2.884
   13NHE    HN1 2870   4.592   2.080   2.911
   13NHE    HN2 2871   4.461   2.187   2.896
    1ILE      N 2872   7.097   5.735  10.728
    1ILE     H1 2873   7.168   5.675  10.690
    1ILE     H2 2874   7.002   5.718  10.695
    1ILE     H3 2875   7.097   5.699  10.822
    1ILE     CA 2876   7.121   5.879  10.744
    1ILE     HA 2877   7.051   5.916  10.817
    1ILE     CB 2878   7.271   5.905  10.790
    1ILE     HB 2879   7.308   5.843  10.872
    1ILE    CG2 2880   7.357   5.873  10.667
    1ILE   HG21 2881   7.380   5.962  10.610
    1ILE   HG22 2882   7.452   5.823  10.691
    1ILE   HG23 2883   7.306   5.806  10.599
    1ILE    CG1 2884   7.296   6.045  10.853
    1ILE   HG12 2885   7.214   6.073  10.920
    1ILE   HG13 2886   7.302   6.119  10.774
    1ILE    CD1 2887   7.426   6.053  10.936
    1ILE   HD11 2888   7.515   6.039  10.875
    1ILE   HD12 2889   7.439   6.157  10.965
    1ILE   HD13 2890   7.431   5.990  11.024
    1ILE      C 2891   7.078   5.957  10.621
    1ILE      O 2892   7.089   5.903  10.512
    2LEU      N 2893   7.028   6.079  10.640
    2LEU      H 2894   7.028   6.113  10.735
    2LEU     CA 2895   7.018   6.179  10.533
    2LEU     HA 2896   7.042   6.139  10.433
    2LEU     CB 2897   6.876   6.229  10.515
    2LEU    HB2 2898   6.863   6.310  10.586
    2LEU    HB3 2899   6.865   6.270  10.415
    2LEU     CG 2900   6.761   6.132  10.538
    2LEU     HG 2901   6.752   6.094  10.640
    2LEU    CD1 2902   6.625   6.212  10.526
    2LEU   HD11 2903   6.608   6.262  10.621
    2LEU   HD12 2904   6.631   6.284  10.445
    2LEU   HD13 2905   6.536   6.151  10.502
    2LEU    CD2 2906   6.758   6.022  10.438
    2LEU   HD21 2907   6.780   6.068  10.342
    2LEU   HD22 2908   6.846   5.959  10.456
    2LEU   HD23 2909   6.668   5.961  10.435
    2LEU      C 2910   7.112   6.300  10.553
    2LEU      O 2911   7.154   6.335  10.665
    3ARG      N 2912   7.159   6.354  10.442
    3ARG      H 2913   7.124   6.318  10.354
    3ARG     CA 2914   7.262   6.461  10.436
    3ARG     HA 2915   7.274   6.501  10.537
    3ARG     CB 2916   7.403   6.408  10.395
    3ARG    HB2 2917   7.473   6.487  10.421
    3ARG    HB3 2918   7.424   6.328  10.467
    3ARG     CG 2919   7.426   6.358  10.250
    3ARG    HG2 2920   7.356   6.282  10.219
    3ARG    HG3 2921   7.422   6.443  10.181
    3ARG     CD 2922   7.565   6.302  10.224
    3ARG    HD2 2923   7.585   6.314  10.116
    3ARG    HD3 2924   7.640   6.370  10.266
    3ARG     NE 2925   7.585   6.166  10.261
    3ARG     HE 2926   7.554   6.100  10.192
    3ARG     CZ 2927   7.655   6.122  10.367
    3ARG    NH1 2928   7.734   6.199  10.438
    3ARG   HH11 2929   7.723   6.299  10.439
    3ARG   HH12 2930   7.792   6.166  10.511
    3ARG    NH2 2931   7.647   5.989  10.392
    3ARG   HH21 2932   7.597   5.925  10.333
    3ARG   HH22 2933   7.706   5.953  10.466
    3ARG      C 2934   7.224   6.574  10.343
    3ARG      O 2935   7.140   6.561  10.255
    4TRP      N 2936   7.269   6.695  10.378
    4TRP      H 2937   7.341   6.703  10.449
    4TRP     CA 2938   7.227   6.821  10.312
    4TRP     HA 2939   7.184   6.798  10.213
    4TRP     CB 2940   7.113   6.884  10.402
    4TRP    HB2 2941   7.139   6.878  10.508
    4TRP    HB3 2942   7.086   6.984  10.368
    4TRP     CG 2943   6.983   6.810  10.397
    4TRP    CD1 2944   6.893   6.819  10.299
    4TRP    HD1 2945   6.900   6.877  10.208
    4TRP    NE1 2946   6.782   6.748  10.335
    4TRP    HE1 2947   6.703   6.737  10.270
    4TRP    CE2 2948   6.795   6.689  10.456
    4TRP    CZ2 2949   6.717   6.606  10.537
    4TRP    HZ2 2950   6.616   6.572  10.517
    4TRP    CH2 2951   6.772   6.555  10.654
    4TRP    HH2 2952   6.717   6.493  10.722
    4TRP    CZ3 2953   6.907   6.567  10.682
    4TRP    HZ3 2954   6.944   6.525  10.776
    4TRP    CE3 2955   6.993   6.651  10.605
    4TRP    HE3 2956   7.099   6.664  10.630
    4TRP    CD2 2957   6.936   6.717  10.492
    4TRP      C 2958   7.351   6.926  10.297
    4TRP      O 2959   7.454   6.904  10.361
    5PRO      N 2960   7.334   7.035  10.226
    5PRO     CD 2961   7.234   7.041  10.122
    5PRO    HD2 2962   7.146   7.094  10.154
    5PRO    HD3 2963   7.204   6.944  10.079
    5PRO     CG 2964   7.303   7.125  10.010
    5PRO    HG2 2965   7.231   7.174   9.943
    5PRO    HG3 2966   7.364   7.058   9.948
    5PRO     CB 2967   7.381   7.225  10.091
    5PRO    HB2 2968   7.315   7.302  10.134
    5PRO    HB3 2969   7.462   7.259  10.027
    5PRO     CA 2970   7.432   7.141  10.206
    5PRO     HA 2971   7.525   7.094  10.174
    5PRO      C 2972   7.461   7.226  10.331
    5PRO      O 2973   7.371   7.215  10.420
    6TRP      N 2974   7.554   7.320  10.341
    6TRP      H 2975   7.621   7.309  10.266
    6TRP     CA 2976   7.572   7.418  10.455
    6TRP     HA 2977   7.555   7.370  10.550
    6TRP     CB 2978   7.724   7.462  10.452
    6TRP    HB2 2979   7.748   7.495  10.351
    6TRP    HB3 2980   7.750   7.546  10.517
    6TRP     CG 2981   7.827   7.358  10.499
    6TRP    CD1 2982   7.897   7.273  10.418
    6TRP    HD1 2983   7.890   7.286  10.310
    6TRP    NE1 2984   7.975   7.177  10.488
    6TRP    HE1 2985   8.023   7.105  10.437
    6TRP    CE2 2986   7.940   7.186  10.618
    6TRP    CZ2 2987   7.976   7.113  10.733
    6TRP    HZ2 2988   8.029   7.020  10.722
    6TRP    CH2 2989   7.937   7.148  10.860
    6TRP    HH2 2990   7.966   7.080  10.938
    6TRP    CZ3 2991   7.852   7.256  10.886
    6TRP    HZ3 2992   7.816   7.280  10.984
    6TRP    CE3 2993   7.810   7.330  10.770
    6TRP    HE3 2994   7.748   7.418  10.783
    6TRP    CD2 2995   7.855   7.301  10.635
    6TRP      C 2996   7.483   7.535  10.452
    6TRP      O 2997   7.475   7.611  10.551
    7TRP      N 2998   7.412   7.556  10.339
    7TRP      H 2999   7.428   7.487  10.267
    7TRP     CA 3000   7.332   7.676  10.313
    7TRP     HA 3001   7.394   7.761  10.339
    7TRP     CB 3002   7.290   7.676  10.165
    7TRP    HB2 3003   7.192   7.633  10.154
    7TRP    HB3 3004   7.273   7.780  10.140
    7TRP     CG 3005   7.382   7.629  10.053
    7TRP    CD1 3006   7.346   7.595   9.927
    7TRP    HD1 3007   7.243   7.599   9.892
    7TRP    NE1 3008   7.448   7.556   9.846
    7TRP    HE1 3009   7.427   7.521   9.753
    7TRP    CE2 3010   7.567   7.572   9.916
    7TRP    CZ2 3011   7.697   7.553   9.874
    7TRP    HZ2 3012   7.715   7.518   9.773
    7TRP    CH2 3013   7.803   7.570   9.965
    7TRP    HH2 3014   7.904   7.558   9.928
    7TRP    CZ3 3015   7.774   7.610  10.096
    7TRP    HZ3 3016   7.854   7.616  10.170
    7TRP    CE3 3017   7.640   7.646  10.130
    7TRP    HE3 3018   7.618   7.698  10.221
    7TRP    CD2 3019   7.529   7.620  10.044
    7TRP      C 3020   7.214   7.674  10.407
    7TRP      O 3021   7.160   7.566  10.431
    8PRO      N 3022   7.156   7.789  10.450
    8PRO     CD 3023   7.186   7.925  10.407
    8PRO    HD2 3024   7.182   7.934  10.298
    8PRO    HD3 3025   7.284   7.951  10.447
    8PRO     CG 3026   7.071   8.008  10.462
    8PRO    HG2 3027   6.997   8.024  10.383
    8PRO    HG3 3028   7.107   8.106  10.489
    8PRO     CB 3029   7.018   7.929  10.584
    8PRO    HB2 3030   6.910   7.941  10.591
    8PRO    HB3 3031   7.078   7.953  10.673
    8PRO     CA 3032   7.045   7.785  10.548
    8PRO     HA 3033   7.075   7.739  10.642
    8PRO      C 3034   6.918   7.720  10.497
    8PRO      O 3035   6.856   7.771  10.399
    9TRP      N 3036   6.882   7.608  10.563
    9TRP      H 3037   6.941   7.572  10.635
    9TRP     CA 3038   6.756   7.533  10.542
    9TRP     HA 3039   6.675   7.597  10.506
    9TRP     CB 3040   6.788   7.418  10.440
    9TRP    HB2 3041   6.877   7.372  10.482
    9TRP    HB3 3042   6.703   7.349  10.443
    9TRP     CG 3043   6.828   7.459  10.297
    9TRP    CD1 3044   6.942   7.438  10.225
    9TRP    HD1 3045   7.026   7.378  10.254
    9TRP    NE1 3046   6.938   7.496  10.099
    9TRP    HE1 3047   7.007   7.493  10.025
    9TRP    CE2 3048   6.826   7.577  10.086
    9TRP    CZ2 3049   6.770   7.658   9.985
    9TRP    HZ2 3050   6.823   7.671   9.892
    9TRP    CH2 3051   6.640   7.702   9.996
    9TRP    HH2 3052   6.602   7.755   9.911
    9TRP    CZ3 3053   6.568   7.676  10.115
    9TRP    HZ3 3054   6.469   7.718  10.118
    9TRP    CE3 3055   6.624   7.599  10.220
    9TRP    HE3 3056   6.562   7.573  10.304
    9TRP    CD2 3057   6.756   7.552  10.208
    9TRP      C 3058   6.707   7.472  10.675
    9TRP      O 3059   6.774   7.393  10.737
   10ARG      N 3060   6.587   7.508  10.715
   10ARG      H 3061   6.547   7.590  10.669
   10ARG     CA 3062   6.522   7.453  10.826
   10ARG     HA 3063   6.595   7.441  10.906
   10ARG     CB 3064   6.407   7.544  10.864
   10ARG    HB2 3065   6.338   7.555  10.779
   10ARG    HB3 3066   6.349   7.487  10.937
   10ARG     CG 3067   6.442   7.681  10.917
   10ARG    HG2 3068   6.504   7.658  11.005
   10ARG    HG3 3069   6.512   7.737  10.857
   10ARG     CD 3070   6.315   7.766  10.956
   10ARG    HD2 3071   6.344   7.854  11.013
   10ARG    HD3 3072   6.254   7.789  10.867
   10ARG     NE 3073   6.233   7.694  11.058
   10ARG     HE 3074   6.279   7.679  11.146
   10ARG     CZ 3075   6.113   7.636  11.032
   10ARG    NH1 3076   6.081   7.605  10.909
   10ARG   HH11 3077   6.146   7.599  10.831
   10ARG   HH12 3078   5.985   7.577  10.896
   10ARG    NH2 3079   6.028   7.612  11.129
   10ARG   HH21 3080   6.034   7.650  11.222
   10ARG   HH22 3081   5.943   7.564  11.103
   10ARG      C 3082   6.469   7.314  10.792
   10ARG      O 3083   6.420   7.289  10.680
   11ARG      N 3084   6.475   7.214  10.882
   11ARG      H 3085   6.518   7.240  10.969
   11ARG     CA 3086   6.425   7.076  10.874
   11ARG     HA 3087   6.330   7.089  10.820
   11ARG     CB 3088   6.519   6.980  10.786
   11ARG    HB2 3089   6.487   6.876  10.799
   11ARG    HB3 3090   6.513   7.008  10.680
   11ARG     CG 3091   6.666   6.981  10.834
   11ARG    HG2 3092   6.697   7.085  10.835
   11ARG    HG3 3093   6.671   6.950  10.938
   11ARG     CD 3094   6.766   6.903  10.736
   11ARG    HD2 3095   6.750   6.801  10.767
   11ARG    HD3 3096   6.740   6.925  10.633
   11ARG     NE 3097   6.906   6.939  10.770
   11ARG     HE 3098   6.948   6.920  10.860
   11ARG     CZ 3099   6.979   7.021  10.699
   11ARG    NH1 3100   6.950   7.093  10.593
   11ARG   HH11 3101   6.861   7.088  10.544
   11ARG   HH12 3102   7.011   7.168  10.567
   11ARG    NH2 3103   7.101   7.044  10.740
   11ARG   HH21 3104   7.123   7.013  10.833
   11ARG   HH22 3105   7.175   7.075  10.680
   11ARG      C 3106   6.393   7.025  11.012
   11ARG      O 3107   6.470   7.062  11.103
   12LYS      N 3108   6.301   6.930  11.028
   12LYS      H 3109   6.248   6.910  10.945
   12LYS     CA 3110   6.270   6.860  11.156
   12LYS     HA 3111   6.224   6.941  11.210
   12LYS     CB 3112   6.169   6.747  11.120
   12LYS    HB2 3113   6.099   6.776  11.042
   12LYS    HB3 3114   6.224   6.667  11.071
   12LYS     CG 3115   6.082   6.696  11.228
   12LYS    HG2 3116   6.141   6.667  11.315
   12LYS    HG3 3117   6.007   6.772  11.254
   12LYS     CD 3118   6.005   6.577  11.186
   12LYS    HD2 3119   5.936   6.603  11.106
   12LYS    HD3 3120   6.072   6.497  11.156
   12LYS     CE 3121   5.929   6.523  11.315
   12LYS    HE2 3122   6.001   6.508  11.395
   12LYS    HE3 3123   5.854   6.588  11.362
   12LYS     NZ 3124   5.864   6.392  11.291
   12LYS    HZ1 3125   5.777   6.395  11.240
   12LYS    HZ2 3126   5.924   6.322  11.248
   12LYS    HZ3 3127   5.835   6.360  11.383
   12LYS      C 3128   6.383   6.811  11.246
   12LYS      O 3129   6.479   6.756  11.197
   13NHE      N 3130   6.351   6.820  11.377
   13NHE    HN1 3131   6.267   6.867  11.411
   13NHE    HN2 3132   6.409   6.782  11.450
    1ILE      N 3133   3.063   7.210   5.592
    1ILE     H1 3134   3.036   7.149   5.516
    1ILE     H2 3135   3.151   7.259   5.580
    1ILE     H3 3136   2.992   7.280   5.578
    1ILE     CA 3137   3.045   7.166   5.731
    1ILE     HA 3138   3.044   7.255   5.793
    1ILE     CB 3139   2.911   7.084   5.747
    1ILE     HB 3140   2.821   7.127   5.702
    1ILE    CG2 3141   2.937   6.950   5.676
    1ILE   HG21 3142   2.969   6.873   5.746
    1ILE   HG22 3143   2.850   6.911   5.621
    1ILE   HG23 3144   3.016   6.959   5.603
    1ILE    CG1 3145   2.859   7.072   5.893
    1ILE   HG12 3146   2.869   7.166   5.947
    1ILE   HG13 3147   2.917   6.996   5.945
    1ILE    CD1 3148   2.711   7.032   5.903
    1ILE   HD11 3149   2.691   6.933   5.864
    1ILE   HD12 3150   2.688   7.015   6.008
    1ILE   HD13 3151   2.639   7.102   5.861
    1ILE      C 3152   3.170   7.097   5.783
    1ILE      O 3153   3.236   7.031   5.705
    2LEU      N 3154   3.199   7.113   5.912
    2LEU      H 3155   3.134   7.167   5.967
    2LEU     CA 3156   3.291   7.024   5.985
    2LEU     HA 3157   3.343   6.952   5.920
    2LEU     CB 3158   3.406   7.100   6.047
    2LEU    HB2 3159   3.371   7.135   6.145
    2LEU    HB3 3160   3.489   7.032   6.066
    2LEU     CG 3161   3.462   7.222   5.975
    2LEU     HG 3162   3.392   7.305   5.964
    2LEU    CD1 3163   3.571   7.290   6.067
    2LEU   HD11 3164   3.518   7.352   6.140
    2LEU   HD12 3165   3.630   7.214   6.117
    2LEU   HD13 3166   3.645   7.353   6.015
    2LEU    CD2 3167   3.527   7.186   5.846
    2LEU   HD21 3168   3.584   7.096   5.866
    2LEU   HD22 3169   3.449   7.152   5.778
    2LEU   HD23 3170   3.587   7.263   5.799
    2LEU      C 3171   3.221   6.939   6.094
    2LEU      O 3172   3.115   6.975   6.148
    3ARG      N 3173   3.273   6.820   6.114
    3ARG      H 3174   3.357   6.796   6.063
    3ARG     CA 3175   3.214   6.716   6.202
    3ARG     HA 3176   3.136   6.763   6.263
    3ARG     CB 3177   3.141   6.602   6.123
    3ARG    HB2 3178   3.080   6.549   6.196
    3ARG    HB3 3179   3.069   6.655   6.059
    3ARG     CG 3180   3.226   6.502   6.038
    3ARG    HG2 3181   3.291   6.552   5.967
    3ARG    HG3 3182   3.284   6.439   6.105
    3ARG     CD 3183   3.143   6.401   5.959
    3ARG    HD2 3184   3.208   6.314   5.944
    3ARG    HD3 3185   3.067   6.359   6.025
    3ARG     NE 3186   3.093   6.446   5.834
    3ARG     HE 3187   3.158   6.440   5.759
    3ARG     CZ 3188   2.965   6.478   5.807
    3ARG    NH1 3189   2.865   6.448   5.888
    3ARG   HH11 3190   2.880   6.432   5.986
    3ARG   HH12 3191   2.769   6.464   5.865
    3ARG    NH2 3192   2.943   6.534   5.686
    3ARG   HH21 3193   3.014   6.547   5.617
    3ARG   HH22 3194   2.845   6.550   5.661
    3ARG      C 3195   3.315   6.652   6.295
    3ARG      O 3196   3.435   6.658   6.273
    4TRP      N 3197   3.268   6.613   6.413
    4TRP      H 3198   3.168   6.606   6.428
    4TRP     CA 3199   3.355   6.566   6.525
    4TRP     HA 3200   3.453   6.538   6.486
    4TRP     CB 3201   3.374   6.690   6.622
    4TRP    HB2 3202   3.280   6.743   6.637
    4TRP    HB3 3203   3.425   6.662   6.714
    4TRP     CG 3204   3.461   6.799   6.567
    4TRP    CD1 3205   3.595   6.796   6.564
    4TRP    HD1 3206   3.660   6.716   6.598
    4TRP    NE1 3207   3.641   6.916   6.519
    4TRP    HE1 3208   3.740   6.932   6.504
    4TRP    CE2 3209   3.540   7.002   6.489
    4TRP    CZ2 3210   3.530   7.131   6.437
    4TRP    HZ2 3211   3.611   7.198   6.413
    4TRP    CH2 3212   3.404   7.182   6.408
    4TRP    HH2 3213   3.388   7.282   6.371
    4TRP    CZ3 3214   3.291   7.101   6.408
    4TRP    HZ3 3215   3.195   7.148   6.385
    4TRP    CE3 3216   3.293   6.969   6.460
    4TRP    HE3 3217   3.203   6.906   6.464
    4TRP    CD2 3218   3.419   6.918   6.505
    4TRP      C 3219   3.287   6.443   6.606
    4TRP      O 3220   3.168   6.417   6.587
    5PRO      N 3221   3.359   6.380   6.698
    5PRO     CD 3222   3.503   6.381   6.692
    5PRO    HD2 3223   3.545   6.451   6.763
    5PRO    HD3 3224   3.547   6.398   6.593
    5PRO     CG 3225   3.542   6.237   6.738
    5PRO    HG2 3226   3.643   6.231   6.779
    5PRO    HG3 3227   3.539   6.170   6.651
    5PRO     CB 3228   3.437   6.209   6.843
    5PRO    HB2 3229   3.458   6.265   6.936
    5PRO    HB3 3230   3.430   6.101   6.850
    5PRO     CA 3231   3.313   6.270   6.782
    5PRO     HA 3232   3.268   6.196   6.717
    5PRO      C 3233   3.210   6.310   6.889
    5PRO      O 3234   3.207   6.435   6.910
    6TRP      N 3235   3.146   6.227   6.969
    6TRP      H 3236   3.152   6.132   6.932
    6TRP     CA 3237   3.059   6.263   7.088
    6TRP     HA 3238   2.999   6.351   7.065
    6TRP     CB 3239   2.959   6.143   7.109
    6TRP    HB2 3240   3.017   6.051   7.114
    6TRP    HB3 3241   2.901   6.146   7.202
    6TRP     CG 3242   2.846   6.127   7.006
    6TRP    CD1 3243   2.849   6.046   6.897
    6TRP    HD1 3244   2.932   5.976   6.884
    6TRP    NE1 3245   2.738   6.061   6.810
    6TRP    HE1 3246   2.735   6.013   6.722
    6TRP    CE2 3247   2.669   6.169   6.853
    6TRP    CZ2 3248   2.556   6.238   6.804
    6TRP    HZ2 3249   2.520   6.216   6.705
    6TRP    CH2 3250   2.495   6.340   6.873
    6TRP    HH2 3251   2.413   6.389   6.821
    6TRP    CZ3 3252   2.544   6.390   6.994
    6TRP    HZ3 3253   2.500   6.474   7.045
    6TRP    CE3 3254   2.661   6.324   7.044
    6TRP    HE3 3255   2.702   6.354   7.140
    6TRP    CD2 3256   2.725   6.211   6.979
    6TRP      C 3257   3.131   6.295   7.212
    6TRP      O 3258   3.072   6.346   7.309
    7TRP      N 3259   3.263   6.266   7.215
    7TRP      H 3260   3.299   6.225   7.130
    7TRP     CA 3261   3.347   6.275   7.335
    7TRP     HA 3262   3.291   6.226   7.415
    7TRP     CB 3263   3.482   6.207   7.307
    7TRP    HB2 3264   3.555   6.281   7.276
    7TRP    HB3 3265   3.520   6.176   7.404
    7TRP     CG 3266   3.494   6.081   7.224
    7TRP    CD1 3267   3.608   6.032   7.167
    7TRP    HD1 3268   3.704   6.081   7.175
    7TRP    NE1 3269   3.592   5.916   7.096
    7TRP    HE1 3270   3.670   5.879   7.044
    7TRP    CE2 3271   3.460   5.874   7.112
    7TRP    CZ2 3272   3.399   5.759   7.067
    7TRP    HZ2 3273   3.457   5.689   7.007
    7TRP    CH2 3274   3.262   5.739   7.090
    7TRP    HH2 3275   3.218   5.646   7.057
    7TRP    CZ3 3276   3.191   5.835   7.163
    7TRP    HZ3 3277   3.083   5.825   7.176
    7TRP    CE3 3278   3.263   5.944   7.223
    7TRP    HE3 3279   3.216   6.006   7.297
    7TRP    CD2 3280   3.399   5.973   7.193
    7TRP      C 3281   3.361   6.420   7.371
    7TRP      O 3282   3.373   6.502   7.279
    8PRO      N 3283   3.378   6.461   7.499
    8PRO     CD 3284   3.399   6.377   7.616
    8PRO    HD2 3285   3.481   6.306   7.600
    8PRO    HD3 3286   3.305   6.327   7.638
    8PRO     CG 3287   3.446   6.473   7.724
    8PRO    HG2 3288   3.555   6.470   7.731
    8PRO    HG3 3289   3.409   6.440   7.821
    8PRO     CB 3290   3.389   6.611   7.684
    8PRO    HB2 3291   3.460   6.689   7.711
    8PRO    HB3 3292   3.285   6.621   7.719
    8PRO     CA 3293   3.385   6.605   7.533
    8PRO     HA 3294   3.293   6.657   7.506
    8PRO      C 3295   3.504   6.678   7.475
    8PRO      O 3296   3.622   6.644   7.510
    9TRP      N 3297   3.473   6.776   7.387
    9TRP      H 3298   3.378   6.790   7.362
    9TRP     CA 3299   3.570   6.870   7.327
    9TRP     HA 3300   3.657   6.888   7.391
    9TRP     CB 3301   3.612   6.810   7.188
    9TRP    HB2 3302   3.517   6.786   7.142
    9TRP    HB3 3303   3.664   6.889   7.134
    9TRP     CG 3304   3.690   6.677   7.189
    9TRP    CD1 3305   3.661   6.554   7.137
    9TRP    HD1 3306   3.578   6.530   7.075
    9TRP    NE1 3307   3.759   6.459   7.165
    9TRP    HE1 3308   3.764   6.363   7.135
    9TRP    CE2 3309   3.852   6.509   7.255
    9TRP    CZ2 3310   3.969   6.462   7.317
    9TRP    HZ2 3311   4.000   6.360   7.301
    9TRP    CH2 3312   4.055   6.551   7.379
    9TRP    HH2 3313   4.147   6.508   7.416
    9TRP    CZ3 3314   4.018   6.686   7.391
    9TRP    HZ3 3315   4.087   6.748   7.445
    9TRP    CE3 3316   3.897   6.735   7.334
    9TRP    HE3 3317   3.878   6.841   7.336
    9TRP    CD2 3318   3.811   6.646   7.268
    9TRP      C 3319   3.504   7.007   7.306
    9TRP      O 3320   3.407   7.021   7.235
   10ARG      N 3321   3.561   7.110   7.366
   10ARG      H 3322   3.629   7.087   7.439
   10ARG     CA 3323   3.522   7.243   7.346
   10ARG     HA 3324   3.413   7.247   7.344
   10ARG     CB 3325   3.582   7.326   7.458
   10ARG    HB2 3326   3.691   7.317   7.459
   10ARG    HB3 3327   3.565   7.430   7.428
   10ARG     CG 3328   3.530   7.302   7.598
   10ARG    HG2 3329   3.422   7.322   7.588
   10ARG    HG3 3330   3.528   7.198   7.629
   10ARG     CD 3331   3.597   7.396   7.706
   10ARG    HD2 3332   3.542   7.390   7.800
   10ARG    HD3 3333   3.704   7.375   7.716
   10ARG     NE 3334   3.574   7.539   7.671
   10ARG     HE 3335   3.478   7.569   7.670
   10ARG     CZ 3336   3.672   7.621   7.625
   10ARG    NH1 3337   3.780   7.572   7.571
   10ARG   HH11 3338   3.790   7.476   7.538
   10ARG   HH12 3339   3.854   7.638   7.553
   10ARG    NH2 3340   3.659   7.752   7.635
   10ARG   HH21 3341   3.591   7.799   7.693
   10ARG   HH22 3342   3.733   7.807   7.594
   10ARG      C 3343   3.573   7.294   7.212
   10ARG      O 3344   3.685   7.261   7.168
   11ARG      N 3345   3.496   7.374   7.135
   11ARG      H 3346   3.406   7.395   7.175
   11ARG     CA 3347   3.526   7.440   7.007
   11ARG     HA 3348   3.632   7.468   7.020
   11ARG     CB 3349   3.517   7.340   6.881
   11ARG    HB2 3350   3.521   7.398   6.788
   11ARG    HB3 3351   3.599   7.267   6.885
   11ARG     CG 3352   3.381   7.267   6.875
   11ARG    HG2 3353   3.366   7.219   6.971
   11ARG    HG3 3354   3.300   7.340   6.868
   11ARG     CD 3355   3.376   7.152   6.763
   11ARG    HD2 3356   3.357   7.209   6.674
   11ARG    HD3 3357   3.470   7.096   6.764
   11ARG     NE 3358   3.257   7.065   6.787
   11ARG     HE 3359   3.162   7.100   6.784
   11ARG     CZ 3360   3.264   6.946   6.840
   11ARG    NH1 3361   3.366   6.879   6.889
   11ARG   HH11 3362   3.462   6.911   6.884
   11ARG   HH12 3363   3.347   6.799   6.947
   11ARG    NH2 3364   3.152   6.881   6.856
   11ARG   HH21 3365   3.067   6.934   6.844
   11ARG   HH22 3366   3.146   6.781   6.862
   11ARG      C 3367   3.445   7.567   6.994
   11ARG      O 3368   3.330   7.562   7.040
   12LYS      N 3369   3.490   7.667   6.919
   12LYS      H 3370   3.585   7.654   6.887
   12LYS     CA 3371   3.415   7.790   6.885
   12LYS     HA 3372   3.414   7.838   6.981
   12LYS     CB 3373   3.502   7.867   6.781
   12LYS    HB2 3374   3.608   7.858   6.800
   12LYS    HB3 3375   3.493   7.817   6.685
   12LYS     CG 3376   3.481   8.013   6.768
   12LYS    HG2 3377   3.375   8.036   6.753
   12LYS    HG3 3378   3.520   8.063   6.858
   12LYS     CD 3379   3.555   8.070   6.654
   12LYS    HD2 3380   3.662   8.060   6.669
   12LYS    HD3 3381   3.524   8.023   6.561
   12LYS     CE 3382   3.511   8.223   6.642
   12LYS    HE2 3383   3.403   8.228   6.636
   12LYS    HE3 3384   3.534   8.290   6.725
   12LYS     NZ 3385   3.563   8.286   6.518
   12LYS    HZ1 3386   3.660   8.313   6.521
   12LYS    HZ2 3387   3.547   8.233   6.434
   12LYS    HZ3 3388   3.515   8.376   6.513
   12LYS      C 3389   3.268   7.782   6.843
   12LYS      O 3390   3.233   7.695   6.766
   13NHE      N 3391   3.197   7.889   6.887
   13NHE    HN1 3392   3.235   7.958   6.951
   13NHE    HN2 3393   3.101   7.905   6.859
    1ILE      N 3394   5.903   6.877   3.974
    1ILE     H1 3395   5.922   6.872   4.073
    1ILE     H2 3396   5.921   6.967   3.930
    1ILE     H3 3397   5.980   6.818   3.943
    1ILE     CA 3398   5.783   6.813   3.918
    1ILE     HA 3399   5.801   6.797   3.813
    1ILE     CB 3400   5.754   6.675   3.991
    1ILE     HB 3401   5.839   6.608   4.005
    1ILE    CG2 3402   5.705   6.715   4.132
    1ILE   HG21 3403   5.597   6.718   4.137
    1ILE   HG22 3404   5.740   6.647   4.211
    1ILE   HG23 3405   5.739   6.813   4.160
    1ILE    CG1 3406   5.660   6.580   3.913
    1ILE   HG12 3407   5.684   6.578   3.807
    1ILE   HG13 3408   5.557   6.613   3.925
    1ILE    CD1 3409   5.667   6.433   3.962
    1ILE   HD11 3410   5.632   6.422   4.064
    1ILE   HD12 3411   5.590   6.377   3.909
    1ILE   HD13 3412   5.763   6.383   3.951
    1ILE      C 3413   5.667   6.910   3.913
    1ILE      O 3414   5.657   6.993   4.001
    2LEU      N 3415   5.581   6.897   3.811
    2LEU      H 3416   5.599   6.822   3.747
    2LEU     CA 3417   5.446   6.955   3.813
    2LEU     HA 3418   5.427   7.021   3.900
    2LEU     CB 3419   5.423   7.049   3.696
    2LEU    HB2 3420   5.390   6.987   3.613
    2LEU    HB3 3421   5.342   7.117   3.720
    2LEU     CG 3422   5.540   7.132   3.645
    2LEU     HG 3423   5.623   7.075   3.603
    2LEU    CD1 3424   5.493   7.210   3.515
    2LEU   HD11 3425   5.499   7.140   3.431
    2LEU   HD12 3426   5.390   7.245   3.528
    2LEU   HD13 3427   5.550   7.300   3.490
    2LEU    CD2 3428   5.586   7.233   3.744
    2LEU   HD21 3429   5.496   7.275   3.788
    2LEU   HD22 3430   5.631   7.178   3.827
    2LEU   HD23 3431   5.654   7.309   3.708
    2LEU      C 3432   5.334   6.849   3.816
    2LEU      O 3433   5.350   6.734   3.774
    3ARG      N 3434   5.225   6.884   3.882
    3ARG      H 3435   5.221   6.979   3.918
    3ARG     CA 3436   5.111   6.794   3.911
    3ARG     HA 3437   5.122   6.704   3.850
    3ARG     CB 3438   5.108   6.744   4.059
    3ARG    HB2 3439   5.039   6.660   4.061
    3ARG    HB3 3440   5.207   6.699   4.075
    3ARG     CG 3441   5.076   6.845   4.173
    3ARG    HG2 3442   5.140   6.932   4.172
    3ARG    HG3 3443   4.971   6.875   4.166
    3ARG     CD 3444   5.084   6.786   4.313
    3ARG    HD2 3445   5.018   6.846   4.377
    3ARG    HD3 3446   5.031   6.690   4.315
    3ARG     NE 3447   5.214   6.781   4.371
    3ARG     HE 3448   5.243   6.867   4.414
    3ARG     CZ 3449   5.289   6.671   4.388
    3ARG    NH1 3450   5.241   6.549   4.374
    3ARG   HH11 3451   5.159   6.530   4.320
    3ARG   HH12 3452   5.293   6.466   4.394
    3ARG    NH2 3453   5.416   6.692   4.430
    3ARG   HH21 3454   5.452   6.782   4.453
    3ARG   HH22 3455   5.471   6.608   4.452
    3ARG      C 3456   4.976   6.856   3.879
    3ARG      O 3457   4.962   6.977   3.869
    4TRP      N 3458   4.882   6.771   3.839
    4TRP      H 3459   4.895   6.672   3.851
    4TRP     CA 3460   4.750   6.815   3.785
    4TRP     HA 3461   4.730   6.919   3.814
    4TRP     CB 3462   4.762   6.810   3.626
    4TRP    HB2 3463   4.814   6.719   3.594
    4TRP    HB3 3464   4.666   6.827   3.579
    4TRP     CG 3465   4.849   6.917   3.568
    4TRP    CD1 3466   4.812   7.044   3.548
    4TRP    HD1 3467   4.717   7.089   3.574
    4TRP    NE1 3468   4.911   7.109   3.482
    4TRP    HE1 3469   4.906   7.209   3.462
    4TRP    CE2 3470   5.018   7.028   3.456
    4TRP    CZ2 3471   5.143   7.043   3.397
    4TRP    HZ2 3472   5.182   7.132   3.349
    4TRP    CH2 3473   5.232   6.936   3.400
    4TRP    HH2 3474   5.329   6.940   3.354
    4TRP    CZ3 3475   5.209   6.825   3.479
    4TRP    HZ3 3476   5.282   6.745   3.477
    4TRP    CE3 3477   5.083   6.802   3.542
    4TRP    HE3 3478   5.063   6.712   3.601
    4TRP    CD2 3479   4.983   6.904   3.528
    4TRP      C 3480   4.630   6.717   3.834
    4TRP      O 3481   4.658   6.610   3.887
    5PRO      N 3482   4.505   6.752   3.808
    5PRO     CD 3483   4.469   6.890   3.786
    5PRO    HD2 3484   4.457   6.912   3.680
    5PRO    HD3 3485   4.537   6.965   3.830
    5PRO     CG 3486   4.330   6.904   3.855
    5PRO    HG2 3487   4.270   6.986   3.814
    5PRO    HG3 3488   4.346   6.925   3.961
    5PRO     CB 3489   4.268   6.770   3.825
    5PRO    HB2 3490   4.237   6.763   3.719
    5PRO    HB3 3491   4.192   6.754   3.901
    5PRO     CA 3492   4.386   6.676   3.841
    5PRO     HA 3493   4.392   6.649   3.947
    5PRO      C 3494   4.368   6.546   3.760
    5PRO      O 3495   4.438   6.545   3.655
    6TRP      N 3496   4.274   6.455   3.780
    6TRP      H 3497   4.234   6.467   3.872
    6TRP     CA 3498   4.241   6.337   3.690
    6TRP     HA 3499   4.333   6.292   3.651
    6TRP     CB 3500   4.173   6.228   3.783
    6TRP    HB2 3501   4.091   6.276   3.836
    6TRP    HB3 3502   4.128   6.144   3.730
    6TRP     CG 3503   4.264   6.154   3.881
    6TRP    CD1 3504   4.283   6.186   4.012
    6TRP    HD1 3505   4.222   6.265   4.056
    6TRP    NE1 3506   4.383   6.110   4.077
    6TRP    HE1 3507   4.412   6.133   4.171
    6TRP    CE2 3508   4.446   6.037   3.981
    6TRP    CZ2 3509   4.556   5.951   3.982
    6TRP    HZ2 3510   4.620   5.947   4.070
    6TRP    CH2 3511   4.596   5.877   3.873
    6TRP    HH2 3512   4.686   5.820   3.885
    6TRP    CZ3 3513   4.532   5.887   3.748
    6TRP    HZ3 3514   4.567   5.835   3.661
    6TRP    CE3 3515   4.422   5.978   3.743
    6TRP    HE3 3516   4.365   5.988   3.651
    6TRP    CD2 3517   4.373   6.052   3.858
    6TRP      C 3518   4.158   6.368   3.573
    6TRP      O 3519   4.142   6.284   3.482
    7TRP      N 3520   4.100   6.490   3.569
    7TRP      H 3521   4.121   6.548   3.649
    7TRP     CA 3522   4.001   6.531   3.470
    7TRP     HA 3523   3.929   6.450   3.463
    7TRP     CB 3524   3.937   6.663   3.515
    7TRP    HB2 3525   3.988   6.747   3.468
    7TRP    HB3 3526   3.840   6.667   3.467
    7TRP     CG 3527   3.905   6.694   3.660
    7TRP    CD1 3528   3.880   6.817   3.713
    7TRP    HD1 3529   3.881   6.908   3.655
    7TRP    NE1 3530   3.855   6.817   3.847
    7TRP    HE1 3531   3.844   6.906   3.895
    7TRP    CE2 3532   3.851   6.685   3.890
    7TRP    CZ2 3533   3.822   6.635   4.016
    7TRP    HZ2 3534   3.799   6.704   4.096
    7TRP    CH2 3535   3.830   6.497   4.039
    7TRP    HH2 3536   3.802   6.460   4.137
    7TRP    CZ3 3537   3.865   6.412   3.932
    7TRP    HZ3 3538   3.879   6.305   3.950
    7TRP    CE3 3539   3.877   6.467   3.801
    7TRP    HE3 3540   3.881   6.403   3.714
    7TRP    CD2 3541   3.880   6.607   3.776
    7TRP      C 3542   4.071   6.542   3.337
    7TRP      O 3543   4.185   6.587   3.334
    8PRO      N 3544   4.005   6.520   3.220
    8PRO     CD 3545   3.863   6.497   3.201
    8PRO    HD2 3546   3.803   6.575   3.250
    8PRO    HD3 3547   3.840   6.397   3.240
    8PRO     CG 3548   3.841   6.512   3.052
    8PRO    HG2 3549   3.804   6.613   3.031
    8PRO    HG3 3550   3.763   6.444   3.019
    8PRO     CB 3551   3.978   6.480   2.986
    8PRO    HB2 3552   3.992   6.543   2.899
    8PRO    HB3 3553   3.988   6.371   2.975
    8PRO     CA 3554   4.078   6.524   3.091
    8PRO     HA 3555   4.157   6.449   3.086
    8PRO      C 3556   4.134   6.660   3.054
    8PRO      O 3557   4.055   6.758   3.035
    9TRP      N 3558   4.269   6.664   3.045
    9TRP      H 3559   4.322   6.583   3.068
    9TRP     CA 3560   4.347   6.781   2.998
    9TRP     HA 3561   4.292   6.844   2.928
    9TRP     CB 3562   4.390   6.861   3.126
    9TRP    HB2 3563   4.432   6.785   3.191
    9TRP    HB3 3564   4.466   6.932   3.095
    9TRP     CG 3565   4.277   6.927   3.210
    9TRP    CD1 3566   4.238   6.909   3.339
    9TRP    HD1 3567   4.287   6.848   3.412
    9TRP    NE1 3568   4.129   6.987   3.374
    9TRP    HE1 3569   4.082   6.995   3.464
    9TRP    CE2 3570   4.075   7.048   3.262
    9TRP    CZ2 3571   3.969   7.137   3.236
    9TRP    HZ2 3572   3.902   7.165   3.316
    9TRP    CH2 3573   3.962   7.203   3.115
    9TRP    HH2 3574   3.883   7.275   3.106
    9TRP    CZ3 3575   4.056   7.173   3.014
    9TRP    HZ3 3576   4.041   7.224   2.921
    9TRP    CE3 3577   4.161   7.080   3.036
    9TRP    HE3 3578   4.237   7.067   2.960
    9TRP    CD2 3579   4.169   7.014   3.160
    9TRP      C 3580   4.472   6.733   2.923
    9TRP      O 3581   4.557   6.665   2.976
   10ARG      N 3582   4.485   6.775   2.798
   10ARG      H 3583   4.401   6.814   2.755
   10ARG     CA 3584   4.599   6.752   2.720
   10ARG     HA 3585   4.633   6.650   2.737
   10ARG     CB 3586   4.562   6.778   2.575
   10ARG    HB2 3587   4.525   6.880   2.563
   10ARG    HB3 3588   4.657   6.778   2.521
   10ARG     CG 3589   4.464   6.682   2.511
   10ARG    HG2 3590   4.514   6.585   2.522
   10ARG    HG3 3591   4.373   6.665   2.567
   10ARG     CD 3592   4.435   6.717   2.359
   10ARG    HD2 3593   4.381   6.635   2.312
   10ARG    HD3 3594   4.385   6.814   2.350
   10ARG     NE 3595   4.562   6.716   2.281
   10ARG     HE 3596   4.609   6.627   2.276
   10ARG     CZ 3597   4.622   6.827   2.233
   10ARG    NH1 3598   4.596   6.944   2.287
   10ARG   HH11 3599   4.551   6.959   2.376
   10ARG   HH12 3600   4.633   7.024   2.236
   10ARG    NH2 3601   4.707   6.820   2.132
   10ARG   HH21 3602   4.718   6.741   2.072
   10ARG   HH22 3603   4.752   6.907   2.106
   10ARG      C 3604   4.711   6.846   2.762
   10ARG      O 3605   4.688   6.964   2.795
   11ARG      N 3606   4.839   6.803   2.766
   11ARG      H 3607   4.850   6.706   2.741
   11ARG     CA 3608   4.963   6.877   2.797
   11ARG     HA 3609   4.944   6.974   2.749
   11ARG     CB 3610   4.984   6.902   2.954
   11ARG    HB2 3611   5.085   6.939   2.972
   11ARG    HB3 3612   4.910   6.973   2.991
   11ARG     CG 3613   4.976   6.771   3.036
   11ARG    HG2 3614   4.882   6.723   3.011
   11ARG    HG3 3615   5.053   6.701   3.001
   11ARG     CD 3616   4.977   6.794   3.195
   11ARG    HD2 3617   5.081   6.809   3.215
   11ARG    HD3 3618   4.913   6.880   3.218
   11ARG     NE 3619   4.934   6.669   3.263
   11ARG     HE 3620   4.986   6.582   3.257
   11ARG     CZ 3621   4.816   6.651   3.315
   11ARG    NH1 3622   4.709   6.728   3.315
   11ARG   HH11 3623   4.707   6.822   3.277
   11ARG   HH12 3624   4.620   6.687   3.338
   11ARG    NH2 3625   4.792   6.536   3.372
   11ARG   HH21 3626   4.859   6.463   3.355
   11ARG   HH22 3627   4.722   6.523   3.443
   11ARG      C 3628   5.080   6.812   2.726
   11ARG      O 3629   5.076   6.687   2.720
   12LYS      N 3630   5.186   6.885   2.694
   12LYS      H 3631   5.173   6.983   2.708
   12LYS     CA 3632   5.314   6.832   2.639
   12LYS     HA 3633   5.280   6.803   2.540
   12LYS     CB 3634   5.413   6.952   2.635
   12LYS    HB2 3635   5.364   7.045   2.611
   12LYS    HB3 3636   5.447   6.971   2.737
   12LYS     CG 3637   5.526   6.945   2.540
   12LYS    HG2 3638   5.580   6.851   2.551
   12LYS    HG3 3639   5.488   6.956   2.438
   12LYS     CD 3640   5.622   7.055   2.560
   12LYS    HD2 3641   5.575   7.151   2.539
   12LYS    HD3 3642   5.663   7.052   2.661
   12LYS     CE 3643   5.745   7.026   2.463
   12LYS    HE2 3644   5.782   6.926   2.482
   12LYS    HE3 3645   5.727   7.026   2.355
   12LYS     NZ 3646   5.858   7.119   2.489
   12LYS    HZ1 3647   5.848   7.211   2.450
   12LYS    HZ2 3648   5.885   7.128   2.585
   12LYS    HZ3 3649   5.935   7.080   2.434
   12LYS      C 3650   5.377   6.705   2.698
   12LYS      O 3651   5.381   6.692   2.818
   13NHE      N 3652   5.438   6.631   2.603
   13NHE    HN1 3653   5.431   6.650   2.504
   13NHE    HN2 3654   5.494   6.550   2.626
    1ILE      N 3655   8.895   2.707   5.770
    1ILE     H1 3656   8.930   2.618   5.798
    1ILE     H2 3657   8.964   2.782   5.760
    1ILE     H3 3658   8.870   2.684   5.675
    1ILE     CA 3659   8.771   2.760   5.829
    1ILE     HA 3660   8.732   2.835   5.762
    1ILE     CB 3661   8.665   2.643   5.850
    1ILE     HB 3662   8.650   2.575   5.766
    1ILE    CG2 3663   8.722   2.558   5.966
    1ILE   HG21 3664   8.678   2.587   6.061
    1ILE   HG22 3665   8.706   2.450   5.953
    1ILE   HG23 3666   8.829   2.571   5.976
    1ILE    CG1 3667   8.519   2.690   5.868
    1ILE   HG12 3668   8.494   2.771   5.799
    1ILE   HG13 3669   8.505   2.726   5.970
    1ILE    CD1 3670   8.415   2.579   5.844
    1ILE   HD11 3671   8.422   2.498   5.917
    1ILE   HD12 3672   8.317   2.619   5.870
    1ILE   HD13 3673   8.411   2.537   5.744
    1ILE      C 3674   8.799   2.843   5.952
    1ILE      O 3675   8.893   2.812   6.023
    2LEU      N 3676   8.719   2.947   5.975
    2LEU      H 3677   8.643   2.960   5.911
    2LEU     CA 3678   8.709   3.013   6.107
    2LEU     HA 3679   8.783   2.977   6.179
    2LEU     CB 3680   8.740   3.161   6.099
    2LEU    HB2 3681   8.647   3.211   6.072
    2LEU    HB3 3682   8.769   3.197   6.197
    2LEU     CG 3683   8.845   3.208   5.999
    2LEU     HG 3684   8.820   3.192   5.894
    2LEU    CD1 3685   8.848   3.367   6.001
    2LEU   HD11 3686   8.766   3.402   5.939
    2LEU   HD12 3687   8.837   3.403   6.104
    2LEU   HD13 3688   8.942   3.413   5.966
    2LEU    CD2 3689   8.981   3.160   6.032
    2LEU   HD21 3690   8.991   3.170   6.140
    2LEU   HD22 3691   8.982   3.052   6.017
    2LEU   HD23 3692   9.064   3.206   5.979
    2LEU      C 3693   8.571   2.993   6.174
    2LEU      O 3694   8.468   2.970   6.110
    3ARG      N 3695   8.574   2.987   6.306
    3ARG      H 3696   8.663   3.003   6.352
    3ARG     CA 3697   8.457   2.954   6.392
    3ARG     HA 3698   8.367   2.960   6.329
    3ARG     CB 3699   8.460   2.808   6.447
    3ARG    HB2 3700   8.360   2.787   6.484
    3ARG    HB3 3701   8.472   2.745   6.358
    3ARG     CG 3702   8.567   2.770   6.554
    3ARG    HG2 3703   8.669   2.793   6.523
    3ARG    HG3 3704   8.544   2.821   6.647
    3ARG     CD 3705   8.566   2.623   6.595
    3ARG    HD2 3706   8.608   2.618   6.696
    3ARG    HD3 3707   8.463   2.593   6.614
    3ARG     NE 3708   8.638   2.534   6.509
    3ARG     HE 3709   8.736   2.531   6.527
    3ARG     CZ 3710   8.583   2.447   6.423
    3ARG    NH1 3711   8.456   2.415   6.424
    3ARG   HH11 3712   8.386   2.476   6.464
    3ARG   HH12 3713   8.416   2.345   6.366
    3ARG    NH2 3714   8.670   2.384   6.340
    3ARG   HH21 3715   8.769   2.397   6.344
    3ARG   HH22 3716   8.631   2.311   6.281
    3ARG      C 3717   8.440   3.049   6.508
    3ARG      O 3718   8.532   3.119   6.549
    4TRP      N 3719   8.314   3.071   6.547
    4TRP      H 3720   8.241   3.010   6.514
    4TRP     CA 3721   8.276   3.175   6.646
    4TRP     HA 3722   8.364   3.205   6.704
    4TRP     CB 3723   8.227   3.301   6.563
    4TRP    HB2 3724   8.163   3.270   6.480
    4TRP    HB3 3725   8.183   3.377   6.628
    4TRP     CG 3726   8.336   3.374   6.492
    4TRP    CD1 3727   8.421   3.461   6.549
    4TRP    HD1 3728   8.425   3.489   6.654
    4TRP    NE1 3729   8.497   3.518   6.452
    4TRP    HE1 3730   8.573   3.583   6.475
    4TRP    CE2 3731   8.468   3.470   6.328
    4TRP    CZ2 3732   8.517   3.490   6.199
    4TRP    HZ2 3733   8.594   3.560   6.168
    4TRP    CH2 3734   8.468   3.411   6.096
    4TRP    HH2 3735   8.498   3.423   5.993
    4TRP    CZ3 3736   8.388   3.300   6.121
    4TRP    HZ3 3737   8.353   3.242   6.036
    4TRP    CE3 3738   8.334   3.273   6.250
    4TRP    HE3 3739   8.268   3.188   6.269
    4TRP    CD2 3740   8.371   3.362   6.356
    4TRP      C 3741   8.157   3.124   6.744
    4TRP      O 3742   8.096   3.021   6.715
    5PRO      N 3743   8.123   3.199   6.848
    5PRO     CD 3744   8.216   3.292   6.905
    5PRO    HD2 3745   8.195   3.394   6.874
    5PRO    HD3 3746   8.323   3.270   6.888
    5PRO     CG 3747   8.188   3.282   7.059
    5PRO    HG2 3748   8.218   3.372   7.113
    5PRO    HG3 3749   8.247   3.199   7.099
    5PRO     CB 3750   8.039   3.263   7.061
    5PRO    HB2 3751   7.986   3.356   7.038
    5PRO    HB3 3752   8.016   3.214   7.155
    5PRO     CA 3753   8.017   3.170   6.943
    5PRO     HA 3754   8.031   3.068   6.978
    5PRO      C 3755   7.874   3.182   6.886
    5PRO      O 3756   7.870   3.249   6.779
    6TRP      N 3757   7.763   3.150   6.950
    6TRP      H 3758   7.784   3.091   7.029
    6TRP     CA 3759   7.621   3.179   6.905
    6TRP     HA 3760   7.611   3.165   6.797
    6TRP     CB 3761   7.528   3.072   6.975
    6TRP    HB2 3762   7.550   3.073   7.082
    6TRP    HB3 3763   7.421   3.089   6.967
    6TRP     CG 3764   7.538   2.928   6.922
    6TRP    CD1 3765   7.615   2.829   6.974
    6TRP    HD1 3766   7.668   2.846   7.068
    6TRP    NE1 3767   7.615   2.709   6.898
    6TRP    HE1 3768   7.677   2.633   6.922
    6TRP    CE2 3769   7.551   2.737   6.781
    6TRP    CZ2 3770   7.528   2.662   6.665
    6TRP    HZ2 3771   7.580   2.569   6.649
    6TRP    CH2 3772   7.448   2.707   6.562
    6TRP    HH2 3773   7.443   2.644   6.475
    6TRP    CZ3 3774   7.389   2.835   6.562
    6TRP    HZ3 3775   7.332   2.873   6.478
    6TRP    CE3 3776   7.416   2.914   6.678
    6TRP    HE3 3777   7.370   3.012   6.687
    6TRP    CD2 3778   7.493   2.867   6.792
    6TRP      C 3779   7.573   3.316   6.931
    6TRP      O 3780   7.466   3.357   6.880
    7TRP      N 3781   7.649   3.393   7.012
    7TRP      H 3782   7.732   3.348   7.046
    7TRP     CA 3783   7.608   3.525   7.062
    7TRP     HA 3784   7.506   3.514   7.098
    7TRP     CB 3785   7.705   3.568   7.172
    7TRP    HB2 3786   7.783   3.631   7.131
    7TRP    HB3 3787   7.650   3.638   7.234
    7TRP     CG 3788   7.764   3.471   7.274
    7TRP    CD1 3789   7.873   3.492   7.353
    7TRP    HD1 3790   7.931   3.583   7.351
    7TRP    NE1 3791   7.904   3.388   7.435
    7TRP    HE1 3792   7.989   3.392   7.490
    7TRP    CE2 3793   7.806   3.291   7.421
    7TRP    CZ2 3794   7.790   3.171   7.490
    7TRP    HZ2 3795   7.864   3.143   7.564
    7TRP    CH2 3796   7.685   3.085   7.455
    7TRP    HH2 3797   7.673   2.994   7.513
    7TRP    CZ3 3798   7.595   3.124   7.355
    7TRP    HZ3 3799   7.518   3.054   7.322
    7TRP    CE3 3800   7.605   3.255   7.300
    7TRP    HE3 3801   7.526   3.296   7.240
    7TRP    CD2 3802   7.716   3.341   7.324
    7TRP      C 3803   7.605   3.620   6.945
    7TRP      O 3804   7.693   3.610   6.859
    8PRO      N 3805   7.521   3.726   6.942
    8PRO     CD 3806   7.433   3.773   7.049
    8PRO    HD2 3807   7.488   3.787   7.142
    8PRO    HD3 3808   7.352   3.700   7.058
    8PRO     CG 3809   7.389   3.911   7.004
    8PRO    HG2 3810   7.450   3.987   7.053
    8PRO    HG3 3811   7.287   3.930   7.036
    8PRO     CB 3812   7.401   3.910   6.849
    8PRO    HB2 3813   7.433   4.009   6.815
    8PRO    HB3 3814   7.311   3.866   6.805
    8PRO     CA 3815   7.515   3.814   6.823
    8PRO     HA 3816   7.485   3.760   6.734
    8PRO      C 3817   7.642   3.892   6.796
    8PRO      O 3818   7.684   3.977   6.881
    9TRP      N 3819   7.703   3.862   6.679
    9TRP      H 3820   7.665   3.790   6.622
    9TRP     CA 3821   7.820   3.933   6.623
    9TRP     HA 3822   7.827   4.037   6.655
    9TRP     CB 3823   7.947   3.851   6.666
    9TRP    HB2 3824   7.922   3.749   6.639
    9TRP    HB3 3825   8.031   3.889   6.606
    9TRP     CG 3826   7.980   3.845   6.818
    9TRP    CD1 3827   7.988   3.741   6.904
    9TRP    HD1 3828   7.982   3.637   6.879
    9TRP    NE1 3829   8.017   3.781   7.035
    9TRP    HE1 3830   8.031   3.723   7.116
    9TRP    CE2 3831   8.009   3.919   7.046
    9TRP    CZ2 3832   8.029   4.013   7.148
    9TRP    HZ2 3833   8.048   3.979   7.249
    9TRP    CH2 3834   8.043   4.147   7.117
    9TRP    HH2 3835   8.066   4.211   7.200
    9TRP    CZ3 3836   8.026   4.189   6.984
    9TRP    HZ3 3837   8.034   4.295   6.968
    9TRP    CE3 3838   8.001   4.096   6.879
    9TRP    HE3 3839   8.000   4.131   6.777
    9TRP    CD2 3840   7.989   3.960   6.910
    9TRP      C 3841   7.811   3.936   6.469
    9TRP      O 3842   7.808   3.835   6.403
   10ARG      N 3843   7.812   4.056   6.413
   10ARG      H 3844   7.794   4.135   6.476
   10ARG     CA 3845   7.818   4.077   6.275
   10ARG     HA 3846   7.753   4.005   6.226
   10ARG     CB 3847   7.778   4.221   6.248
   10ARG    HB2 3848   7.843   4.290   6.301
   10ARG    HB3 3849   7.803   4.238   6.143
   10ARG     CG 3850   7.634   4.258   6.276
   10ARG    HG2 3851   7.577   4.189   6.212
   10ARG    HG3 3852   7.597   4.230   6.374
   10ARG     CD 3853   7.602   4.409   6.241
   10ARG    HD2 3854   7.495   4.426   6.243
   10ARG    HD3 3855   7.658   4.478   6.306
   10ARG     NE 3856   7.632   4.437   6.097
   10ARG     HE 3857   7.576   4.385   6.031
   10ARG     CZ 3858   7.737   4.511   6.055
   10ARG    NH1 3859   7.841   4.529   6.133
   10ARG   HH11 3860   7.862   4.474   6.216
   10ARG   HH12 3861   7.907   4.597   6.101
   10ARG    NH2 3862   7.736   4.567   5.936
   10ARG   HH21 3863   7.655   4.576   5.877
   10ARG   HH22 3864   7.820   4.616   5.909
   10ARG      C 3865   7.960   4.053   6.224
   10ARG      O 3866   8.059   4.088   6.291
   11ARG      N 3867   7.981   3.992   6.106
   11ARG      H 3868   7.897   3.964   6.059
   11ARG     CA 3869   8.107   3.964   6.035
   11ARG     HA 3870   8.165   4.055   6.055
   11ARG     CB 3871   8.188   3.839   6.095
   11ARG    HB2 3872   8.269   3.812   6.027
   11ARG    HB3 3873   8.227   3.864   6.194
   11ARG     CG 3874   8.100   3.712   6.103
   11ARG    HG2 3875   8.011   3.738   6.158
   11ARG    HG3 3876   8.064   3.685   6.003
   11ARG     CD 3877   8.171   3.590   6.181
   11ARG    HD2 3878   8.235   3.550   6.105
   11ARG    HD3 3879   8.221   3.630   6.269
   11ARG     NE 3880   8.069   3.487   6.214
   11ARG     HE 3881   8.016   3.437   6.143
   11ARG     CZ 3882   8.018   3.470   6.333
   11ARG    NH1 3883   8.035   3.538   6.445
   11ARG   HH11 3884   8.102   3.614   6.455
   11ARG   HH12 3885   7.970   3.525   6.519
   11ARG    NH2 3886   7.929   3.376   6.348
   11ARG   HH21 3887   7.892   3.336   6.264
   11ARG   HH22 3888   7.909   3.331   6.436
   11ARG      C 3889   8.082   3.958   5.886
   11ARG      O 3890   7.973   3.906   5.852
   12LYS      N 3891   8.179   3.988   5.801
   12LYS      H 3892   8.261   4.027   5.845
   12LYS     CA 3893   8.173   3.972   5.653
   12LYS     HA 3894   8.103   4.050   5.629
   12LYS     CB 3895   8.317   4.002   5.600
   12LYS    HB2 3896   8.366   4.080   5.656
   12LYS    HB3 3897   8.380   3.916   5.623
   12LYS     CG 3898   8.330   4.045   5.459
   12LYS    HG2 3899   8.279   3.975   5.392
   12LYS    HG3 3900   8.290   4.146   5.448
   12LYS     CD 3901   8.471   4.051   5.416
   12LYS    HD2 3902   8.524   4.128   5.473
   12LYS    HD3 3903   8.519   3.954   5.427
   12LYS     CE 3904   8.471   4.083   5.261
   12LYS    HE2 3905   8.409   4.009   5.210
   12LYS    HE3 3906   8.428   4.177   5.227
   12LYS     NZ 3907   8.606   4.071   5.201
   12LYS    HZ1 3908   8.667   4.150   5.217
   12LYS    HZ2 3909   8.656   3.987   5.225
   12LYS    HZ3 3910   8.591   4.076   5.101
   12LYS      C 3911   8.114   3.845   5.592
   12LYS      O 3912   8.142   3.737   5.639
   13NHE      N 3913   8.048   3.871   5.476
   13NHE    HN1 3914   8.029   3.965   5.443
   13NHE    HN2 3915   8.012   3.797   5.417
    1ILE      N 3916   8.754   3.393  10.691
    1ILE     H1 3917   8.700   3.403  10.607
    1ILE     H2 3918   8.743   3.466  10.761
    1ILE     H3 3919   8.704   3.314  10.730
    1ILE     CA 3920   8.894   3.347  10.685
    1ILE     HA 3921   8.919   3.308  10.782
    1ILE     CB 3922   8.911   3.236  10.573
    1ILE     HB 3923   8.837   3.156  10.572
    1ILE    CG2 3924   8.897   3.312  10.439
    1ILE   HG21 3925   8.993   3.340  10.399
    1ILE   HG22 3926   8.843   3.255  10.362
    1ILE   HG23 3927   8.841   3.404  10.452
    1ILE    CG1 3928   9.040   3.151  10.586
    1ILE   HG12 3929   9.058   3.123  10.691
    1ILE   HG13 3930   9.124   3.207  10.550
    1ILE    CD1 3931   9.034   3.018  10.507
    1ILE   HD11 3932   9.028   3.035  10.400
    1ILE   HD12 3933   9.132   2.972  10.514
    1ILE   HD13 3934   8.957   2.947  10.537
    1ILE      C 3935   8.989   3.465  10.675
    1ILE      O 3936   8.953   3.564  10.614
    2LEU      N 3937   9.108   3.452  10.735
    2LEU      H 3938   9.127   3.364  10.779
    2LEU     CA 3939   9.223   3.538  10.702
    2LEU     HA 3940   9.198   3.621  10.634
    2LEU     CB 3941   9.276   3.610  10.824
    2LEU    HB2 3942   9.346   3.542  10.872
    2LEU    HB3 3943   9.332   3.697  10.793
    2LEU     CG 3944   9.178   3.654  10.932
    2LEU     HG 3945   9.126   3.573  10.983
    2LEU    CD1 3946   9.260   3.714  11.054
    2LEU   HD11 3947   9.295   3.630  11.113
    2LEU   HD12 3948   9.344   3.773  11.016
    2LEU   HD13 3949   9.205   3.783  11.119
    2LEU    CD2 3950   9.084   3.759  10.885
    2LEU   HD21 3951   9.144   3.828  10.825
    2LEU   HD22 3952   9.019   3.713  10.810
    2LEU   HD23 3953   9.026   3.810  10.960
    2LEU      C 3954   9.339   3.462  10.634
    2LEU      O 3955   9.356   3.339  10.648
    3ARG      N 3956   9.408   3.532  10.546
    3ARG      H 3957   9.386   3.630  10.537
    3ARG     CA 3958   9.514   3.476  10.458
    3ARG     HA 3959   9.538   3.376  10.494
    3ARG     CB 3960   9.466   3.457  10.310
    3ARG    HB2 3961   9.540   3.392  10.263
    3ARG    HB3 3962   9.376   3.396  10.318
    3ARG     CG 3963   9.439   3.583  10.222
    3ARG    HG2 3964   9.369   3.652  10.268
    3ARG    HG3 3965   9.533   3.633  10.201
    3ARG     CD 3966   9.386   3.552  10.083
    3ARG    HD2 3967   9.414   3.636  10.019
    3ARG    HD3 3968   9.446   3.472  10.039
    3ARG     NE 3969   9.245   3.530  10.073
    3ARG     HE 3970   9.191   3.613  10.067
    3ARG     CZ 3971   9.185   3.411  10.055
    3ARG    NH1 3972   9.250   3.302  10.020
    3ARG   HH11 3973   9.349   3.292  10.036
    3ARG   HH12 3974   9.206   3.216   9.998
    3ARG    NH2 3975   9.050   3.411  10.066
    3ARG   HH21 3976   8.996   3.494  10.081
    3ARG   HH22 3977   9.003   3.323  10.043
    3ARG      C 3978   9.640   3.559  10.457
    3ARG      O 3979   9.641   3.676  10.493
    4TRP      N 3980   9.754   3.491  10.439
    4TRP      H 3981   9.750   3.396  10.407
    4TRP     CA 3982   9.889   3.552  10.455
    4TRP     HA 3983   9.882   3.661  10.449
    4TRP     CB 3984   9.939   3.514  10.601
    4TRP    HB2 3985   9.917   3.409  10.624
    4TRP    HB3 3986  10.043   3.542  10.616
    4TRP     CG 3987   9.868   3.585  10.711
    4TRP    CD1 3988   9.892   3.711  10.749
    4TRP    HD1 3989   9.963   3.781  10.706
    4TRP    NE1 3990   9.818   3.739  10.860
    4TRP    HE1 3991   9.817   3.832  10.902
    4TRP    CE2 3992   9.741   3.633  10.898
    4TRP    CZ2 3993   9.647   3.609  10.999
    4TRP    HZ2 3994   9.618   3.676  11.078
    4TRP    CH2 3995   9.579   3.487  10.998
    4TRP    HH2 3996   9.507   3.460  11.074
    4TRP    CZ3 3997   9.585   3.401  10.890
    4TRP    HZ3 3998   9.529   3.308  10.896
    4TRP    CE3 3999   9.679   3.419  10.784
    4TRP    HE3 4000   9.687   3.349  10.701
    4TRP    CD2 4001   9.762   3.536  10.789
    4TRP      C 4002   9.993   3.494  10.344
    4TRP      O 4003   9.961   3.395  10.278
    5PRO      N 4004  10.113   3.550  10.334
    5PRO     CD 4005  10.135   3.686  10.378
    5PRO    HD2 4006  10.184   3.689  10.475
    5PRO    HD3 4007  10.046   3.751  10.381
    5PRO     CG 4008  10.234   3.743  10.272
    5PRO    HG2 4009  10.293   3.826  10.310
    5PRO    HG3 4010  10.176   3.780  10.187
    5PRO     CB 4011  10.320   3.622  10.244
    5PRO    HB2 4012  10.390   3.603  10.326
    5PRO    HB3 4013  10.363   3.639  10.145
    5PRO     CA 4014  10.219   3.509  10.244
    5PRO     HA 4015  10.176   3.503  10.144
    5PRO      C 4016  10.284   3.374  10.278
    5PRO      O 4017  10.260   3.337  10.396
    6TRP      N 4018  10.374   3.311  10.204
    6TRP      H 4019  10.374   3.349  10.110
    6TRP     CA 4020  10.454   3.188  10.243
    6TRP     HA 4021  10.392   3.118  10.299
    6TRP     CB 4022  10.496   3.117  10.108
    6TRP    HB2 4023  10.544   3.191  10.045
    6TRP    HB3 4024  10.569   3.036  10.119
    6TRP     CG 4025  10.385   3.045  10.031
    6TRP    CD1 4026  10.313   3.097   9.928
    6TRP    HD1 4027  10.342   3.194   9.887
    6TRP    NE1 4028  10.207   3.015   9.883
    6TRP    HE1 4029  10.142   3.048   9.814
    6TRP    CE2 4030  10.197   2.913   9.972
    6TRP    CZ2 4031  10.106   2.806   9.986
    6TRP    HZ2 4032  10.015   2.805   9.928
    6TRP    CH2 4033  10.122   2.705  10.079
    6TRP    HH2 4034  10.042   2.633  10.084
    6TRP    CZ3 4035  10.226   2.706  10.173
    6TRP    HZ3 4036  10.235   2.631  10.250
    6TRP    CE3 4037  10.317   2.816  10.164
    6TRP    HE3 4038  10.403   2.820  10.230
    6TRP    CD2 4039  10.308   2.920  10.062
    6TRP      C 4040  10.571   3.214  10.329
    6TRP      O 4041  10.632   3.119  10.384
    7TRP      N 4042  10.609   3.343  10.345
    7TRP      H 4043  10.552   3.409  10.294
    7TRP     CA 4044  10.733   3.385  10.412
    7TRP     HA 4045  10.812   3.322  10.372
    7TRP     CB 4046  10.756   3.534  10.384
    7TRP    HB2 4047  10.716   3.594  10.465
    7TRP    HB3 4048  10.862   3.549  10.395
    7TRP     CG 4049  10.725   3.598  10.250
    7TRP    CD1 4050  10.711   3.732  10.225
    7TRP    HD1 4051  10.721   3.808  10.301
    7TRP    NE1 4052  10.684   3.763  10.095
    7TRP    HE1 4053  10.663   3.859  10.071
    7TRP    CE2 4054  10.688   3.646  10.021
    7TRP    CZ2 4055  10.674   3.628   9.884
    7TRP    HZ2 4056  10.654   3.715   9.822
    7TRP    CH2 4057  10.676   3.499   9.830
    7TRP    HH2 4058  10.669   3.488   9.723
    7TRP    CZ3 4059  10.696   3.390   9.916
    7TRP    HZ3 4060  10.690   3.288   9.877
    7TRP    CE3 4061  10.728   3.414  10.053
    7TRP    HE3 4062  10.765   3.336  10.116
    7TRP    CD2 4063  10.716   3.543  10.114
    7TRP      C 4064  10.718   3.354  10.558
    7TRP      O 4065  10.608   3.372  10.611
    8PRO      N 4066  10.825   3.325  10.636
    8PRO     CD 4067  10.966   3.331  10.598
    8PRO    HD2 4068  10.991   3.428  10.555
    8PRO    HD3 4069  10.985   3.248  10.529
    8PRO     CG 4070  11.041   3.322  10.730
    8PRO    HG2 4071  11.069   3.422  10.763
    8PRO    HG3 4072  11.134   3.268  10.716
    8PRO     CB 4073  10.945   3.248  10.827
    8PRO    HB2 4074  10.957   3.289  10.928
    8PRO    HB3 4075  10.954   3.139  10.813
    8PRO     CA 4076  10.808   3.288  10.778
    8PRO     HA 4077  10.748   3.198  10.790
    8PRO      C 4078  10.753   3.399  10.866
    8PRO      O 4079  10.819   3.506  10.882
    9TRP      N 4080  10.632   3.372  10.921
    9TRP      H 4081  10.586   3.287  10.898
    9TRP     CA 4082  10.563   3.457  11.020
    9TRP     HA 4083  10.632   3.516  11.081
    9TRP     CB 4084  10.464   3.549  10.940
    9TRP    HB2 4085  10.411   3.479  10.876
    9TRP    HB3 4086  10.396   3.594  11.013
    9TRP     CG 4087  10.526   3.652  10.843
    9TRP    CD1 4088  10.515   3.669  10.708
    9TRP    HD1 4089  10.450   3.614  10.643
    9TRP    NE1 4090  10.591   3.774  10.660
    9TRP    HE1 4091  10.598   3.809  10.565
    9TRP    CE2 4092  10.674   3.823  10.759
    9TRP    CZ2 4093  10.770   3.926  10.770
    9TRP    HZ2 4094  10.797   3.983  10.682
    9TRP    CH2 4095  10.813   3.968  10.894
    9TRP    HH2 4096  10.879   4.053  10.893
    9TRP    CZ3 4097  10.770   3.899  11.009
    9TRP    HZ3 4098  10.812   3.933  11.102
    9TRP    CE3 4099  10.678   3.791  11.001
    9TRP    HE3 4100  10.639   3.748  11.092
    9TRP    CD2 4101  10.632   3.750  10.875
    9TRP      C 4102  10.483   3.369  11.118
    9TRP      O 4103  10.395   3.296  11.081
   10ARG      N 4104  10.514   3.382  11.247
   10ARG      H 4105  10.602   3.430  11.267
   10ARG     CA 4106  10.443   3.320  11.350
   10ARG     HA 4107  10.418   3.219  11.319
   10ARG     CB 4108  10.528   3.325  11.475
   10ARG    HB2 4109  10.553   3.429  11.500
   10ARG    HB3 4110  10.462   3.294  11.556
   10ARG     CG 4111  10.655   3.243  11.475
   10ARG    HG2 4112  10.618   3.141  11.457
   10ARG    HG3 4113  10.719   3.257  11.389
   10ARG     CD 4114  10.735   3.253  11.611
   10ARG    HD2 4115  10.813   3.178  11.615
   10ARG    HD3 4116  10.772   3.356  11.628
   10ARG     NE 4117  10.649   3.209  11.725
   10ARG     HE 4118  10.620   3.113  11.722
   10ARG     CZ 4119  10.597   3.294  11.817
   10ARG    NH1 4120  10.585   3.421  11.790
   10ARG   HH11 4121  10.590   3.462  11.698
   10ARG   HH12 4122  10.560   3.479  11.869
   10ARG    NH2 4123  10.559   3.249  11.935
   10ARG   HH21 4124  10.583   3.159  11.973
   10ARG   HH22 4125  10.516   3.316  11.997
   10ARG      C 4126  10.311   3.394  11.374
   10ARG      O 4127  10.304   3.518  11.367
   11ARG      N 4128  10.198   3.325  11.403
   11ARG      H 4129  10.210   3.225  11.404
   11ARG     CA 4130  10.064   3.374  11.436
   11ARG     HA 4131  10.086   3.461  11.498
   11ARG     CB 4132   9.981   3.424  11.308
   11ARG    HB2 4133   9.876   3.440  11.336
   11ARG    HB3 4134  10.025   3.515  11.268
   11ARG     CG 4135   9.974   3.316  11.197
   11ARG    HG2 4136  10.076   3.286  11.176
   11ARG    HG3 4137   9.927   3.225  11.236
   11ARG     CD 4138   9.910   3.369  11.060
   11ARG    HD2 4139   9.805   3.363  11.081
   11ARG    HD3 4140   9.948   3.469  11.039
   11ARG     NE 4141   9.939   3.272  10.951
   11ARG     HE 4142   9.906   3.176  10.952
   11ARG     CZ 4143  10.030   3.291  10.859
   11ARG    NH1 4144  10.118   3.388  10.843
   11ARG   HH11 4145  10.121   3.471  10.901
   11ARG   HH12 4146  10.195   3.372  10.781
   11ARG    NH2 4147  10.046   3.197  10.770
   11ARG   HH21 4148  10.001   3.109  10.789
   11ARG   HH22 4149  10.085   3.213  10.678
   11ARG      C 4150   9.992   3.273  11.523
   11ARG      O 4151  10.015   3.153  11.495
   12LYS      N 4152   9.897   3.312  11.607
   12LYS      H 4153   9.891   3.412  11.616
   12LYS     CA 4154   9.809   3.223  11.687
   12LYS     HA 4155   9.881   3.184  11.757
   12LYS     CB 4156   9.704   3.315  11.754
   12LYS    HB2 4157   9.745   3.411  11.785
   12LYS    HB3 4158   9.632   3.346  11.679
   12LYS     CG 4159   9.638   3.265  11.878
   12LYS    HG2 4160   9.596   3.166  11.861
   12LYS    HG3 4161   9.710   3.265  11.960
   12LYS     CD 4162   9.527   3.353  11.921
   12LYS    HD2 4163   9.566   3.451  11.949
   12LYS    HD3 4164   9.452   3.361  11.842
   12LYS     CE 4165   9.456   3.280  12.042
   12LYS    HE2 4166   9.428   3.180  12.012
   12LYS    HE3 4167   9.513   3.263  12.134
   12LYS     NZ 4168   9.330   3.349  12.082
   12LYS    HZ1 4169   9.342   3.432  12.138
   12LYS    HZ2 4170   9.267   3.370  12.006
   12LYS    HZ3 4171   9.285   3.285  12.147
   12LYS      C 4172   9.746   3.100  11.622
   12LYS      O 4173   9.698   3.109  11.511
   13NHE      N 4174   9.736   2.997  11.709
   13NHE    HN1 4175   9.778   2.998  11.802
   13NHE    HN2 4176   9.687   2.911  11.686
    1ILE      N 4177   3.683   3.353   6.365
    1ILE     H1 4178   3.728   3.305   6.289
    1ILE     H2 4179   3.620   3.298   6.422
    1ILE     H3 4180   3.764   3.366   6.423
    1ILE     CA 4181   3.629   3.489   6.346
    1ILE     HA 4182   3.621   3.535   6.443
    1ILE     CB 4183   3.726   3.574   6.252
    1ILE     HB 4184   3.832   3.570   6.275
    1ILE    CG2 4185   3.708   3.514   6.111
    1ILE   HG21 4186   3.635   3.569   6.053
    1ILE   HG22 4187   3.801   3.510   6.053
    1ILE   HG23 4188   3.672   3.412   6.116
    1ILE    CG1 4189   3.705   3.728   6.261
    1ILE   HG12 4190   3.691   3.760   6.365
    1ILE   HG13 4191   3.617   3.755   6.204
    1ILE    CD1 4192   3.824   3.809   6.206
    1ILE   HD11 4193   3.839   3.794   6.099
    1ILE   HD12 4194   3.795   3.914   6.206
    1ILE   HD13 4195   3.919   3.797   6.258
    1ILE      C 4196   3.484   3.486   6.303
    1ILE      O 4197   3.447   3.394   6.232
    2LEU      N 4198   3.405   3.584   6.346
    2LEU      H 4199   3.449   3.656   6.401
    2LEU     CA 4200   3.276   3.616   6.283
    2LEU     HA 4201   3.245   3.543   6.207
    2LEU     CB 4202   3.162   3.610   6.383
    2LEU    HB2 4203   3.158   3.708   6.431
    2LEU    HB3 4204   3.068   3.596   6.330
    2LEU     CG 4205   3.168   3.507   6.495
    2LEU     HG 4206   3.250   3.520   6.566
    2LEU    CD1 4207   3.044   3.531   6.592
    2LEU   HD11 4208   3.072   3.613   6.659
    2LEU   HD12 4209   2.956   3.557   6.534
    2LEU   HD13 4210   3.014   3.445   6.653
    2LEU    CD2 4211   3.159   3.368   6.445
    2LEU   HD21 4212   3.083   3.369   6.367
    2LEU   HD22 4213   3.251   3.348   6.390
    2LEU   HD23 4214   3.142   3.290   6.519
    2LEU      C 4215   3.274   3.753   6.213
    2LEU      O 4216   3.351   3.846   6.244
    3ARG      N 4217   3.197   3.761   6.106
    3ARG      H 4218   3.140   3.680   6.084
    3ARG     CA 4219   3.191   3.877   6.013
    3ARG     HA 4220   3.242   3.961   6.062
    3ARG     CB 4221   3.268   3.853   5.880
    3ARG    HB2 4222   3.280   3.951   5.833
    3ARG    HB3 4223   3.369   3.824   5.910
    3ARG     CG 4224   3.211   3.750   5.777
    3ARG    HG2 4225   3.194   3.652   5.820
    3ARG    HG3 4226   3.119   3.789   5.734
    3ARG     CD 4227   3.298   3.729   5.654
    3ARG    HD2 4228   3.232   3.695   5.573
    3ARG    HD3 4229   3.329   3.827   5.615
    3ARG     NE 4230   3.406   3.637   5.668
    3ARG     HE 4231   3.379   3.541   5.656
    3ARG     CZ 4232   3.536   3.668   5.679
    3ARG    NH1 4233   3.583   3.788   5.653
    3ARG   HH11 4234   3.525   3.870   5.656
    3ARG   HH12 4235   3.680   3.811   5.652
    3ARG    NH2 4236   3.619   3.565   5.709
    3ARG   HH21 4237   3.588   3.470   5.717
    3ARG   HH22 4238   3.719   3.586   5.708
    3ARG      C 4239   3.049   3.919   5.981
    3ARG      O 4240   2.954   3.844   5.997
    4TRP      N 4241   3.032   4.050   5.958
    4TRP      H 4242   3.113   4.109   5.943
    4TRP     CA 4243   2.899   4.113   5.944
    4TRP     HA 4244   2.823   4.037   5.921
    4TRP     CB 4245   2.863   4.177   6.086
    4TRP    HB2 4246   2.950   4.227   6.128
    4TRP    HB3 4247   2.773   4.238   6.080
    4TRP     CG 4248   2.831   4.076   6.191
    4TRP    CD1 4249   2.714   4.013   6.205
    4TRP    HD1 4250   2.627   4.022   6.140
    4TRP    NE1 4251   2.716   3.939   6.319
    4TRP    HE1 4252   2.638   3.878   6.344
    4TRP    CE2 4253   2.834   3.949   6.385
    4TRP    CZ2 4254   2.890   3.894   6.500
    4TRP    HZ2 4255   2.841   3.828   6.571
    4TRP    CH2 4256   3.024   3.920   6.529
    4TRP    HH2 4257   3.072   3.884   6.618
    4TRP    CZ3 4258   3.108   3.981   6.437
    4TRP    HZ3 4259   3.211   3.999   6.467
    4TRP    CE3 4260   3.058   4.040   6.317
    4TRP    HE3 4261   3.123   4.092   6.246
    4TRP    CD2 4262   2.918   4.028   6.291
    4TRP      C 4263   2.899   4.230   5.830
    4TRP      O 4264   3.008   4.270   5.787
    5PRO      N 4265   2.784   4.284   5.794
    5PRO     CD 4266   2.660   4.214   5.812
    5PRO    HD2 4267   2.606   4.249   5.899
    5PRO    HD3 4268   2.668   4.103   5.816
    5PRO     CG 4269   2.578   4.252   5.684
    5PRO    HG2 4270   2.470   4.243   5.699
    5PRO    HG3 4271   2.606   4.183   5.603
    5PRO     CB 4272   2.619   4.395   5.664
    5PRO    HB2 4273   2.572   4.461   5.738
    5PRO    HB3 4274   2.602   4.417   5.559
    5PRO     CA 4275   2.767   4.391   5.698
    5PRO     HA 4276   2.821   4.363   5.607
    5PRO      C 4277   2.819   4.529   5.744
    5PRO      O 4278   2.836   4.535   5.869
    6TRP      N 4279   2.825   4.638   5.669
    6TRP      H 4280   2.818   4.613   5.571
    6TRP     CA 4281   2.857   4.779   5.716
    6TRP     HA 4282   2.937   4.777   5.791
    6TRP     CB 4283   2.913   4.857   5.590
    6TRP    HB2 4284   2.842   4.844   5.509
    6TRP    HB3 4285   2.925   4.964   5.603
    6TRP     CG 4286   3.054   4.819   5.543
    6TRP    CD1 4287   3.083   4.730   5.444
    6TRP    HD1 4288   3.002   4.689   5.384
    6TRP    NE1 4289   3.222   4.702   5.429
    6TRP    HE1 4290   3.253   4.631   5.365
    6TRP    CE2 4291   3.284   4.761   5.534
    6TRP    CZ2 4292   3.418   4.761   5.578
    6TRP    HZ2 4293   3.489   4.692   5.535
    6TRP    CH2 4294   3.462   4.839   5.683
    6TRP    HH2 4295   3.565   4.825   5.711
    6TRP    CZ3 4296   3.376   4.918   5.760
    6TRP    HZ3 4297   3.409   4.974   5.846
    6TRP    CE3 4298   3.238   4.916   5.719
    6TRP    HE3 4299   3.166   4.978   5.772
    6TRP    CD2 4300   3.189   4.841   5.605
    6TRP      C 4301   2.746   4.852   5.778
    6TRP      O 4302   2.765   4.959   5.839
    7TRP      N 4303   2.622   4.797   5.767
    7TRP      H 4304   2.620   4.710   5.715
    7TRP     CA 4305   2.498   4.864   5.808
    7TRP     HA 4306   2.504   4.965   5.769
    7TRP     CB 4307   2.379   4.784   5.753
    7TRP    HB2 4308   2.342   4.716   5.828
    7TRP    HB3 4309   2.298   4.856   5.745
    7TRP     CG 4310   2.380   4.719   5.616
    7TRP    CD1 4311   2.295   4.622   5.571
    7TRP    HD1 4312   2.216   4.580   5.632
    7TRP    NE1 4313   2.317   4.580   5.444
    7TRP    HE1 4314   2.264   4.502   5.407
    7TRP    CE2 4315   2.419   4.659   5.390
    7TRP    CZ2 4316   2.470   4.660   5.262
    7TRP    HZ2 4317   2.432   4.588   5.189
    7TRP    CH2 4318   2.577   4.745   5.230
    7TRP    HH2 4319   2.613   4.746   5.128
    7TRP    CZ3 4320   2.626   4.831   5.329
    7TRP    HZ3 4321   2.714   4.893   5.308
    7TRP    CE3 4322   2.558   4.840   5.454
    7TRP    HE3 4323   2.579   4.920   5.523
    7TRP    CD2 4324   2.456   4.748   5.493
    7TRP      C 4325   2.499   4.873   5.958
    7TRP      O 4326   2.543   4.778   6.023
    8PRO      N 4327   2.435   4.974   6.023
    8PRO     CD 4328   2.350   5.077   5.965
    8PRO    HD2 4329   2.271   5.033   5.903
    8PRO    HD3 4330   2.414   5.145   5.909
    8PRO     CG 4331   2.280   5.140   6.084
    8PRO    HG2 4332   2.181   5.097   6.096
    8PRO    HG3 4333   2.265   5.246   6.066
    8PRO     CB 4334   2.374   5.115   6.205
    8PRO    HB2 4335   2.315   5.098   6.295
    8PRO    HB3 4336   2.453   5.193   6.208
    8PRO     CA 4337   2.443   4.985   6.171
    8PRO     HA 4338   2.545   4.997   6.206
    8PRO      C 4339   2.376   4.871   6.246
    8PRO      O 4340   2.251   4.852   6.234
    9TRP      N 4341   2.461   4.797   6.321
    9TRP      H 4342   2.558   4.817   6.319
    9TRP     CA 4343   2.419   4.689   6.414
    9TRP     HA 4344   2.318   4.704   6.454
    9TRP     CB 4345   2.431   4.554   6.335
    9TRP    HB2 4346   2.530   4.559   6.292
    9TRP    HB3 4347   2.424   4.474   6.409
    9TRP     CG 4348   2.336   4.534   6.214
    9TRP    CD1 4349   2.361   4.514   6.082
    9TRP    HD1 4350   2.457   4.500   6.037
    9TRP    NE1 4351   2.244   4.504   6.006
    9TRP    HE1 4352   2.235   4.487   5.907
    9TRP    CE2 4353   2.133   4.536   6.083
    9TRP    CZ2 4354   1.994   4.542   6.062
    9TRP    HZ2 4355   1.954   4.525   5.964
    9TRP    CH2 4356   1.909   4.548   6.171
    9TRP    HH2 4357   1.804   4.543   6.147
    9TRP    CZ3 4358   1.962   4.561   6.300
    9TRP    HZ3 4359   1.889   4.570   6.379
    9TRP    CE3 4360   2.102   4.560   6.324
    9TRP    HE3 4361   2.139   4.559   6.425
    9TRP    CD2 4362   2.189   4.552   6.214
    9TRP      C 4363   2.513   4.686   6.536
    9TRP      O 4364   2.632   4.666   6.525
   10ARG      N 4365   2.456   4.701   6.655
   10ARG      H 4366   2.361   4.737   6.653
   10ARG     CA 4367   2.525   4.688   6.776
   10ARG     HA 4368   2.622   4.734   6.766
   10ARG     CB 4369   2.439   4.750   6.885
   10ARG    HB2 4370   2.341   4.701   6.889
   10ARG    HB3 4371   2.486   4.719   6.978
   10ARG     CG 4372   2.420   4.899   6.880
   10ARG    HG2 4373   2.523   4.938   6.884
   10ARG    HG3 4374   2.388   4.939   6.784
   10ARG     CD 4375   2.332   4.954   6.999
   10ARG    HD2 4376   2.338   5.062   7.004
   10ARG    HD3 4377   2.229   4.916   6.994
   10ARG     NE 4378   2.394   4.917   7.130
   10ARG     HE 4379   2.485   4.958   7.147
   10ARG     CZ 4380   2.344   4.823   7.214
   10ARG    NH1 4381   2.263   4.731   7.169
   10ARG   HH11 4382   2.249   4.708   7.071
   10ARG   HH12 4383   2.218   4.675   7.239
   10ARG    NH2 4384   2.376   4.824   7.342
   10ARG   HH21 4385   2.419   4.901   7.390
   10ARG   HH22 4386   2.339   4.748   7.397
   10ARG      C 4387   2.548   4.540   6.807
   10ARG      O 4388   2.461   4.454   6.780
   11ARG      N 4389   2.664   4.499   6.862
   11ARG      H 4390   2.730   4.573   6.878
   11ARG     CA 4391   2.705   4.364   6.905
   11ARG     HA 4392   2.612   4.325   6.949
   11ARG     CB 4393   2.748   4.269   6.784
   11ARG    HB2 4394   2.796   4.179   6.824
   11ARG    HB3 4395   2.662   4.243   6.724
   11ARG     CG 4396   2.857   4.333   6.695
   11ARG    HG2 4397   2.820   4.430   6.664
   11ARG    HG3 4398   2.946   4.356   6.755
   11ARG     CD 4399   2.889   4.250   6.561
   11ARG    HD2 4400   2.955   4.173   6.598
   11ARG    HD3 4401   2.795   4.214   6.519
   11ARG     NE 4402   2.966   4.335   6.467
   11ARG     HE 4403   3.058   4.372   6.489
   11ARG     CZ 4404   2.915   4.392   6.361
   11ARG    NH1 4405   2.791   4.395   6.317
   11ARG   HH11 4406   2.714   4.344   6.359
   11ARG   HH12 4407   2.767   4.464   6.248
   11ARG    NH2 4408   2.994   4.464   6.287
   11ARG   HH21 4409   3.084   4.487   6.327
   11ARG   HH22 4410   2.978   4.483   6.190
   11ARG      C 4411   2.807   4.376   7.017
   11ARG      O 4412   2.887   4.471   7.007
   12LYS      N 4413   2.819   4.278   7.106
   12LYS      H 4414   2.747   4.208   7.100
   12LYS     CA 4415   2.923   4.269   7.212
   12LYS     HA 4416   2.891   4.350   7.276
   12LYS     CB 4417   2.907   4.129   7.278
   12LYS    HB2 4418   2.803   4.099   7.286
   12LYS    HB3 4419   2.946   4.055   7.210
   12LYS     CG 4420   2.958   4.112   7.416
   12LYS    HG2 4421   3.062   4.145   7.422
   12LYS    HG3 4422   2.895   4.168   7.485
   12LYS     CD 4423   2.954   3.971   7.459
   12LYS    HD2 4424   2.850   3.937   7.465
   12LYS    HD3 4425   3.012   3.908   7.392
   12LYS     CE 4426   3.026   3.964   7.600
   12LYS    HE2 4427   3.125   4.008   7.592
   12LYS    HE3 4428   2.983   4.019   7.684
   12LYS     NZ 4429   3.046   3.824   7.646
   12LYS    HZ1 4430   2.965   3.779   7.685
   12LYS    HZ2 4431   3.087   3.762   7.577
   12LYS    HZ3 4432   3.108   3.832   7.726
   12LYS      C 4433   3.069   4.301   7.178
   12LYS      O 4434   3.117   4.259   7.075
   13NHE      N 4435   3.133   4.360   7.282
   13NHE    HN1 4436   3.085   4.392   7.365
   13NHE    HN2 4437   3.232   4.378   7.280
    1ILE      N 4438   6.088   9.814   2.546
    1ILE     H1 4439   6.042   9.841   2.460
    1ILE     H2 4440   6.038   9.836   2.632
    1ILE     H3 4441   6.079   9.714   2.537
    1ILE     CA 4442   6.232   9.837   2.563
    1ILE     HA 4443   6.266   9.771   2.642
    1ILE     CB 4444   6.309   9.808   2.427
    1ILE     HB 4445   6.284   9.715   2.375
    1ILE    CG2 4446   6.271   9.924   2.334
    1ILE   HG21 4447   6.345  10.003   2.336
    1ILE   HG22 4448   6.257   9.894   2.229
    1ILE   HG23 4449   6.178   9.969   2.364
    1ILE    CG1 4450   6.462   9.784   2.444
    1ILE   HG12 4451   6.483   9.721   2.530
    1ILE   HG13 4452   6.512   9.880   2.457
    1ILE    CD1 4453   6.527   9.714   2.322
    1ILE   HD11 4454   6.522   9.775   2.232
    1ILE   HD12 4455   6.634   9.713   2.339
    1ILE   HD13 4456   6.492   9.614   2.300
    1ILE      C 4457   6.260   9.972   2.625
    1ILE      O 4458   6.186  10.065   2.599
    2LEU      N 4459   6.366   9.981   2.707
    2LEU      H 4460   6.421   9.898   2.718
    2LEU     CA 4461   6.427  10.110   2.743
    2LEU     HA 4462   6.371  10.197   2.708
    2LEU     CB 4463   6.430  10.131   2.893
    2LEU    HB2 4464   6.520  10.083   2.930
    2LEU    HB3 4465   6.439  10.237   2.914
    2LEU     CG 4466   6.314  10.077   2.977
    2LEU     HG 4467   6.304   9.969   2.977
    2LEU    CD1 4468   6.348  10.101   3.130
    2LEU   HD11 4469   6.415  10.020   3.161
    2LEU   HD12 4470   6.396  10.198   3.143
    2LEU   HD13 4471   6.262  10.103   3.198
    2LEU    CD2 4472   6.186  10.146   2.948
    2LEU   HD21 4473   6.210  10.251   2.939
    2LEU   HD22 4474   6.157  10.118   2.847
    2LEU   HD23 4475   6.104  10.128   3.017
    2LEU      C 4476   6.570  10.127   2.687
    2LEU      O 4477   6.643  10.030   2.659
    3ARG      N 4478   6.604  10.251   2.656
    3ARG      H 4479   6.538  10.324   2.679
    3ARG     CA 4480   6.730  10.290   2.588
    3ARG     HA 4481   6.797  10.203   2.589
    3ARG     CB 4482   6.709  10.324   2.437
    3ARG    HB2 4483   6.808  10.324   2.392
    3ARG    HB3 4484   6.659  10.236   2.395
    3ARG     CG 4485   6.631  10.454   2.398
    3ARG    HG2 4486   6.533  10.460   2.445
    3ARG    HG3 4487   6.691  10.541   2.426
    3ARG     CD 4488   6.610  10.473   2.249
    3ARG    HD2 4489   6.599  10.581   2.232
    3ARG    HD3 4490   6.705  10.454   2.197
    3ARG     NE 4491   6.499  10.404   2.192
    3ARG     HE 4492   6.412  10.452   2.203
    3ARG     CZ 4493   6.505  10.295   2.114
    3ARG    NH1 4494   6.617  10.251   2.061
    3ARG   HH11 4495   6.707  10.274   2.099
    3ARG   HH12 4496   6.622  10.175   1.996
    3ARG    NH2 4497   6.386  10.237   2.085
    3ARG   HH21 4498   6.298  10.274   2.114
    3ARG   HH22 4499   6.389  10.159   2.019
    3ARG      C 4500   6.800  10.406   2.654
    3ARG      O 4501   6.742  10.482   2.730
    4TRP      N 4502   6.934  10.405   2.645
    4TRP      H 4503   6.979  10.343   2.579
    4TRP     CA 4504   7.021  10.499   2.720
    4TRP     HA 4505   6.963  10.585   2.753
    4TRP     CB 4506   7.072  10.421   2.849
    4TRP    HB2 4507   7.101  10.318   2.823
    4TRP    HB3 4508   7.149  10.477   2.902
    4TRP     CG 4509   6.967  10.398   2.952
    4TRP    CD1 4510   6.924  10.490   3.040
    4TRP    HD1 4511   6.957  10.593   3.048
    4TRP    NE1 4512   6.838  10.431   3.128
    4TRP    HE1 4513   6.789  10.485   3.199
    4TRP    CE2 4514   6.819  10.299   3.100
    4TRP    CZ2 4515   6.741  10.195   3.152
    4TRP    HZ2 4516   6.677  10.200   3.239
    4TRP    CH2 4517   6.739  10.073   3.087
    4TRP    HH2 4518   6.685   9.988   3.123
    4TRP    CZ3 4519   6.795  10.057   2.960
    4TRP    HZ3 4520   6.791   9.958   2.915
    4TRP    CE3 4521   6.876  10.158   2.900
    4TRP    HE3 4522   6.924  10.144   2.803
    4TRP    CD2 4523   6.892  10.281   2.972
    4TRP      C 4524   7.149  10.546   2.630
    4TRP      O 4525   7.174  10.486   2.526
    5PRO      N 4526   7.227  10.642   2.677
    5PRO     CD 4527   7.178  10.738   2.772
    5PRO    HD2 4528   7.211  10.714   2.873
    5PRO    HD3 4529   7.068  10.753   2.774
    5PRO     CG 4530   7.245  10.872   2.728
    5PRO    HG2 4531   7.254  10.944   2.810
    5PRO    HG3 4532   7.183  10.918   2.651
    5PRO     CB 4533   7.381  10.823   2.683
    5PRO    HB2 4534   7.445  10.797   2.768
    5PRO    HB3 4535   7.417  10.899   2.614
    5PRO     CA 4536   7.346  10.694   2.612
    5PRO     HA 4537   7.320  10.718   2.509
    5PRO      C 4538   7.466  10.596   2.609
    5PRO      O 4539   7.454  10.503   2.693
    6TRP      N 4540   7.580  10.617   2.546
    6TRP      H 4541   7.569  10.690   2.478
    6TRP     CA 4542   7.706  10.533   2.558
    6TRP     HA 4543   7.681  10.427   2.562
    6TRP     CB 4544   7.787  10.555   2.424
    6TRP    HB2 4545   7.798  10.663   2.409
    6TRP    HB3 4546   7.889  10.515   2.424
    6TRP     CG 4547   7.731  10.490   2.297
    6TRP    CD1 4548   7.651  10.551   2.205
    6TRP    HD1 4549   7.633  10.658   2.213
    6TRP    NE1 4550   7.602  10.465   2.104
    6TRP    HE1 4551   7.534  10.498   2.037
    6TRP    CE2 4552   7.634  10.338   2.142
    6TRP    CZ2 4553   7.606  10.212   2.088
    6TRP    HZ2 4554   7.531  10.202   2.011
    6TRP    CH2 4555   7.661  10.095   2.137
    6TRP    HH2 4556   7.626  10.004   2.091
    6TRP    CZ3 4557   7.744  10.093   2.249
    6TRP    HZ3 4558   7.782  10.001   2.292
    6TRP    CE3 4559   7.772  10.221   2.308
    6TRP    HE3 4560   7.839  10.226   2.393
    6TRP    CD2 4561   7.722  10.346   2.255
    6TRP      C 4562   7.790  10.559   2.676
    6TRP      O 4563   7.883  10.483   2.706
    7TRP      N 4564   7.759  10.669   2.749
    7TRP      H 4565   7.682  10.722   2.713
    7TRP     CA 4566   7.842  10.720   2.859
    7TRP     HA 4567   7.944  10.720   2.823
    7TRP     CB 4568   7.793  10.860   2.897
    7TRP    HB2 4569   7.723  10.854   2.980
    7TRP    HB3 4570   7.878  10.910   2.943
    7TRP     CG 4571   7.745  10.962   2.794
    7TRP    CD1 4572   7.671  11.073   2.818
    7TRP    HD1 4573   7.637  11.102   2.917
    7TRP    NE1 4574   7.641  11.148   2.708
    7TRP    HE1 4575   7.579  11.227   2.717
    7TRP    CE2 4576   7.707  11.091   2.599
    7TRP    CZ2 4577   7.714  11.135   2.468
    7TRP    HZ2 4578   7.660  11.225   2.440
    7TRP    CH2 4579   7.782  11.058   2.373
    7TRP    HH2 4580   7.789  11.097   2.272
    7TRP    CZ3 4581   7.846  10.940   2.413
    7TRP    HZ3 4582   7.893  10.875   2.339
    7TRP    CE3 4583   7.851  10.908   2.553
    7TRP    HE3 4584   7.917  10.831   2.589
    7TRP    CD2 4585   7.774  10.977   2.651
    7TRP      C 4586   7.832  10.621   2.972
    7TRP      O 4587   7.724  10.568   2.995
    8PRO      N 4588   7.935  10.605   3.061
    8PRO     CD 4589   8.057  10.683   3.070
    8PRO    HD2 4590   8.036  10.790   3.075
    8PRO    HD3 4591   8.119  10.657   2.983
    8PRO     CG 4592   8.117  10.644   3.204
    8PRO    HG2 4593   8.091  10.719   3.278
    8PRO    HG3 4594   8.225  10.644   3.197
    8PRO     CB 4595   8.061  10.503   3.235
    8PRO    HB2 4596   8.045  10.493   3.342
    8PRO    HB3 4597   8.123  10.426   3.184
    8PRO     CA 4598   7.926  10.503   3.167
    8PRO     HA 4599   7.916  10.402   3.127
    8PRO      C 4600   7.818  10.528   3.270
    8PRO      O 4601   7.823  10.632   3.344
    9TRP      N 4602   7.721  10.433   3.274
    9TRP      H 4603   7.723  10.358   3.209
    9TRP     CA 4604   7.612  10.427   3.374
    9TRP     HA 4605   7.639  10.473   3.470
    9TRP     CB 4606   7.488  10.498   3.310
    9TRP    HB2 4607   7.480  10.452   3.212
    9TRP    HB3 4608   7.401  10.473   3.372
    9TRP     CG 4609   7.499  10.650   3.281
    9TRP    CD1 4610   7.492  10.721   3.165
    9TRP    HD1 4611   7.467  10.682   3.069
    9TRP    NE1 4612   7.512  10.857   3.184
    9TRP    HE1 4613   7.509  10.931   3.115
    9TRP    CE2 4614   7.554  10.883   3.314
    9TRP    CZ2 4615   7.587  10.997   3.389
    9TRP    HZ2 4616   7.589  11.094   3.340
    9TRP    CH2 4617   7.595  10.990   3.526
    9TRP    HH2 4618   7.612  11.083   3.577
    9TRP    CZ3 4619   7.582  10.864   3.589
    9TRP    HZ3 4620   7.595  10.866   3.696
    9TRP    CE3 4621   7.554  10.746   3.516
    9TRP    HE3 4622   7.534  10.655   3.569
    9TRP    CD2 4623   7.543  10.754   3.376
    9TRP      C 4624   7.577  10.281   3.406
    9TRP      O 4625   7.538  10.205   3.320
   10ARG      N 4626   7.588  10.243   3.532
   10ARG      H 4627   7.640  10.307   3.593
   10ARG     CA 4628   7.548  10.118   3.580
   10ARG     HA 4629   7.577  10.042   3.508
   10ARG     CB 4630   7.610  10.098   3.716
   10ARG    HB2 4631   7.580  10.178   3.785
   10ARG    HB3 4632   7.561  10.009   3.757
   10ARG     CG 4633   7.760  10.083   3.722
   10ARG    HG2 4634   7.779   9.996   3.657
   10ARG    HG3 4635   7.816  10.159   3.669
   10ARG     CD 4636   7.815  10.059   3.868
   10ARG    HD2 4637   7.919  10.029   3.865
   10ARG    HD3 4638   7.797  10.147   3.932
   10ARG     NE 4639   7.752   9.937   3.928
   10ARG     HE 4640   7.773   9.851   3.881
   10ARG     CZ 4641   7.659   9.941   4.026
   10ARG    NH1 4642   7.589  10.050   4.047
   10ARG   HH11 4643   7.581  10.127   3.982
   10ARG   HH12 4644   7.534  10.049   4.131
   10ARG    NH2 4645   7.639   9.835   4.103
   10ARG   HH21 4646   7.700   9.756   4.109
   10ARG   HH22 4647   7.564   9.844   4.170
   10ARG      C 4648   7.395  10.113   3.592
   10ARG      O 4649   7.330  10.212   3.630
   11ARG      N 4650   7.328  10.001   3.559
   11ARG      H 4651   7.386   9.926   3.526
   11ARG     CA 4652   7.184   9.971   3.568
   11ARG     HA 4653   7.157  10.020   3.663
   11ARG     CB 4654   7.098  10.038   3.450
   11ARG    HB2 4655   6.996   9.996   3.452
   11ARG    HB3 4656   7.095  10.146   3.462
   11ARG     CG 4657   7.152  10.001   3.310
   11ARG    HG2 4658   7.257  10.027   3.309
   11ARG    HG3 4659   7.151   9.892   3.297
   11ARG     CD 4660   7.081  10.081   3.191
   11ARG    HD2 4661   6.990  10.025   3.177
   11ARG    HD3 4662   7.068  10.185   3.221
   11ARG     NE 4663   7.162  10.066   3.067
   11ARG     HE 4664   7.179   9.977   3.022
   11ARG     CZ 4665   7.239  10.160   3.018
   11ARG    NH1 4666   7.271  10.279   3.066
   11ARG   HH11 4667   7.229  10.319   3.149
   11ARG   HH12 4668   7.350  10.326   3.027
   11ARG    NH2 4669   7.305  10.133   2.909
   11ARG   HH21 4670   7.306  10.037   2.880
   11ARG   HH22 4671   7.338  10.204   2.845
   11ARG      C 4672   7.164   9.822   3.586
   11ARG      O 4673   7.243   9.749   3.524
   12LYS      N 4674   7.055   9.777   3.649
   12LYS      H 4675   7.001   9.849   3.692
   12LYS     CA 4676   7.015   9.634   3.660
   12LYS     HA 4677   7.092   9.599   3.728
   12LYS     CB 4678   6.873   9.634   3.725
   12LYS    HB2 4679   6.861   9.712   3.799
   12LYS    HB3 4680   6.801   9.665   3.649
   12LYS     CG 4681   6.830   9.511   3.796
   12LYS    HG2 4682   6.843   9.424   3.732
   12LYS    HG3 4683   6.888   9.502   3.889
   12LYS     CD 4684   6.688   9.517   3.835
   12LYS    HD2 4685   6.672   9.597   3.908
   12LYS    HD3 4686   6.625   9.531   3.748
   12LYS     CE 4687   6.651   9.375   3.895
   12LYS    HE2 4688   6.678   9.298   3.823
   12LYS    HE3 4689   6.703   9.341   3.986
   12LYS     NZ 4690   6.506   9.361   3.920
   12LYS    HZ1 4691   6.471   9.406   4.004
   12LYS    HZ2 4692   6.446   9.389   3.843
   12LYS    HZ3 4693   6.492   9.262   3.941
   12LYS      C 4694   7.024   9.542   3.539
   12LYS      O 4695   6.987   9.582   3.431
   13NHE      N 4696   7.058   9.415   3.574
   13NHE    HN1 4697   7.087   9.390   3.668
   13NHE    HN2 4698   7.058   9.339   3.508
    1ILE      N 4699   7.383   9.563   9.829
    1ILE     H1 4700   7.373   9.491   9.899
    1ILE     H2 4701   7.300   9.582   9.773
    1ILE     H3 4702   7.388   9.642   9.892
    1ILE     CA 4703   7.504   9.572   9.747
    1ILE     HA 4704   7.510   9.673   9.709
    1ILE     CB 4705   7.632   9.537   9.834
    1ILE     HB 4706   7.640   9.586   9.932
    1ILE    CG2 4707   7.624   9.386   9.860
    1ILE   HG21 4708   7.682   9.329   9.788
    1ILE   HG22 4709   7.657   9.356   9.960
    1ILE   HG23 4710   7.522   9.350   9.851
    1ILE    CG1 4711   7.767   9.586   9.773
    1ILE   HG12 4712   7.757   9.687   9.732
    1ILE   HG13 4713   7.797   9.518   9.694
    1ILE    CD1 4714   7.882   9.592   9.876
    1ILE   HD11 4715   7.908   9.494   9.915
    1ILE   HD12 4716   7.973   9.616   9.821
    1ILE   HD13 4717   7.870   9.661   9.959
    1ILE      C 4718   7.490   9.493   9.619
    1ILE      O 4719   7.424   9.391   9.621
    2LEU      N 4720   7.552   9.541   9.510
    2LEU      H 4721   7.606   9.624   9.523
    2LEU     CA 4722   7.580   9.458   9.392
    2LEU     HA 4723   7.534   9.358   9.396
    2LEU     CB 4724   7.519   9.517   9.266
    2LEU    HB2 4725   7.591   9.589   9.228
    2LEU    HB3 4726   7.508   9.439   9.191
    2LEU     CG 4727   7.386   9.591   9.277
    2LEU     HG 4728   7.388   9.681   9.337
    2LEU    CD1 4729   7.351   9.654   9.135
    2LEU   HD11 4730   7.408   9.747   9.127
    2LEU   HD12 4731   7.380   9.584   9.056
    2LEU   HD13 4732   7.245   9.675   9.117
    2LEU    CD2 4733   7.274   9.501   9.314
    2LEU   HD21 4734   7.288   9.409   9.257
    2LEU   HD22 4735   7.291   9.469   9.417
    2LEU   HD23 4736   7.173   9.540   9.304
    2LEU      C 4737   7.731   9.434   9.368
    2LEU      O 4738   7.818   9.511   9.411
    3ARG      N 4739   7.761   9.318   9.314
    3ARG      H 4740   7.684   9.258   9.285
    3ARG     CA 4741   7.899   9.266   9.296
    3ARG     HA 4742   7.968   9.349   9.313
    3ARG     CB 4743   7.938   9.157   9.400
    3ARG    HB2 4744   8.046   9.147   9.395
    3ARG    HB3 4745   7.918   9.203   9.498
    3ARG     CG 4746   7.870   9.017   9.393
    3ARG    HG2 4747   7.761   9.023   9.394
    3ARG    HG3 4748   7.904   8.965   9.304
    3ARG     CD 4749   7.910   8.921   9.505
    3ARG    HD2 4750   7.895   8.819   9.466
    3ARG    HD3 4751   8.018   8.923   9.516
    3ARG     NE 4752   7.839   8.936   9.628
    3ARG     HE 4753   7.750   8.889   9.630
    3ARG     CZ 4754   7.887   8.990   9.741
    3ARG    NH1 4755   8.015   9.014   9.760
    3ARG   HH11 4756   8.078   9.026   9.683
    3ARG   HH12 4757   8.053   9.047   9.846
    3ARG    NH2 4758   7.797   9.009   9.840
    3ARG   HH21 4759   7.701   8.980   9.834
    3ARG   HH22 4760   7.834   9.041   9.930
    3ARG      C 4761   7.924   9.211   9.157
    3ARG      O 4762   7.832   9.178   9.084
    4TRP      N 4763   8.049   9.225   9.112
    4TRP      H 4764   8.123   9.250   9.176
    4TRP     CA 4765   8.089   9.195   8.971
    4TRP     HA 4766   8.013   9.131   8.924
    4TRP     CB 4767   8.090   9.334   8.894
    4TRP    HB2 4768   8.137   9.412   8.955
    4TRP    HB3 4769   8.132   9.324   8.794
    4TRP     CG 4770   7.955   9.392   8.869
    4TRP    CD1 4771   7.871   9.354   8.772
    4TRP    HD1 4772   7.887   9.275   8.700
    4TRP    NE1 4773   7.764   9.437   8.771
    4TRP    HE1 4774   7.685   9.421   8.708
    4TRP    CE2 4775   7.771   9.532   8.868
    4TRP    CZ2 4776   7.689   9.637   8.913
    4TRP    HZ2 4777   7.595   9.669   8.870
    4TRP    CH2 4778   7.727   9.707   9.027
    4TRP    HH2 4779   7.671   9.790   9.065
    4TRP    CZ3 4780   7.831   9.663   9.109
    4TRP    HZ3 4781   7.855   9.723   9.196
    4TRP    CE3 4782   7.919   9.558   9.069
    4TRP    HE3 4783   8.003   9.526   9.131
    4TRP    CD2 4784   7.891   9.492   8.945
    4TRP      C 4785   8.236   9.126   8.964
    4TRP      O 4786   8.307   9.127   9.064
    5PRO      N 4787   8.278   9.079   8.848
    5PRO     CD 4788   8.185   9.040   8.745
    5PRO    HD2 4789   8.177   9.116   8.668
    5PRO    HD3 4790   8.083   9.013   8.780
    5PRO     CG 4791   8.250   8.913   8.682
    5PRO    HG2 4792   8.217   8.895   8.580
    5PRO    HG3 4793   8.221   8.826   8.742
    5PRO     CB 4794   8.396   8.948   8.688
    5PRO    HB2 4795   8.422   9.023   8.612
    5PRO    HB3 4796   8.450   8.854   8.686
    5PRO     CA 4797   8.407   9.017   8.823
    5PRO     HA 4798   8.422   8.941   8.898
    5PRO      C 4799   8.527   9.115   8.828
    5PRO      O 4800   8.491   9.236   8.818
    6TRP      N 4801   8.654   9.081   8.819
    6TRP      H 4802   8.664   8.982   8.837
    6TRP     CA 4803   8.773   9.175   8.804
    6TRP     HA 4804   8.759   9.263   8.866
    6TRP     CB 4805   8.898   9.097   8.861
    6TRP    HB2 4806   8.903   9.000   8.813
    6TRP    HB3 4807   8.995   9.145   8.842
    6TRP     CG 4808   8.906   9.080   9.014
    6TRP    CD1 4809   8.864   8.971   9.083
    6TRP    HD1 4810   8.833   8.882   9.029
    6TRP    NE1 4811   8.869   8.986   9.224
    6TRP    HE1 4812   8.832   8.915   9.284
    6TRP    CE2 4813   8.897   9.117   9.248
    6TRP    CZ2 4814   8.906   9.193   9.366
    6TRP    HZ2 4815   8.870   9.152   9.459
    6TRP    CH2 4816   8.948   9.324   9.368
    6TRP    HH2 4817   8.944   9.374   9.463
    6TRP    CZ3 4818   8.978   9.395   9.250
    6TRP    HZ3 4819   9.005   9.500   9.251
    6TRP    CE3 4820   8.965   9.320   9.128
    6TRP    HE3 4821   8.992   9.368   9.035
    6TRP    CD2 4822   8.929   9.180   9.123
    6TRP      C 4823   8.798   9.223   8.668
    6TRP      O 4824   8.878   9.317   8.647
    7TRP      N 4825   8.729   9.164   8.567
    7TRP      H 4826   8.667   9.090   8.598
    7TRP     CA 4827   8.754   9.188   8.425
    7TRP     HA 4828   8.861   9.183   8.411
    7TRP     CB 4829   8.679   9.082   8.343
    7TRP    HB2 4830   8.583   9.120   8.311
    7TRP    HB3 4831   8.733   9.074   8.249
    7TRP     CG 4832   8.668   8.937   8.387
    7TRP    CD1 4833   8.579   8.844   8.340
    7TRP    HD1 4834   8.505   8.866   8.264
    7TRP    NE1 4835   8.589   8.721   8.397
    7TRP    HE1 4836   8.521   8.650   8.374
    7TRP    CE2 4837   8.699   8.722   8.483
    7TRP    CZ2 4838   8.754   8.619   8.556
    7TRP    HZ2 4839   8.707   8.521   8.552
    7TRP    CH2 4840   8.863   8.644   8.641
    7TRP    HH2 4841   8.906   8.560   8.695
    7TRP    CZ3 4842   8.916   8.774   8.647
    7TRP    HZ3 4843   8.995   8.797   8.718
    7TRP    CE3 4844   8.867   8.873   8.555
    7TRP    HE3 4845   8.920   8.965   8.541
    7TRP    CD2 4846   8.751   8.854   8.476
    7TRP      C 4847   8.709   9.328   8.394
    7TRP      O 4848   8.607   9.371   8.448
    8PRO      N 4849   8.768   9.401   8.295
    8PRO     CD 4850   8.868   9.356   8.199
    8PRO    HD2 4851   8.835   9.265   8.148
    8PRO    HD3 4852   8.961   9.342   8.253
    8PRO     CG 4853   8.872   9.465   8.094
    8PRO    HG2 4854   8.810   9.436   8.009
    8PRO    HG3 4855   8.972   9.476   8.055
    8PRO     CB 4856   8.823   9.594   8.166
    8PRO    HB2 4857   8.765   9.655   8.097
    8PRO    HB3 4858   8.907   9.641   8.219
    8PRO     CA 4859   8.727   9.541   8.271
    8PRO     HA 4860   8.745   9.604   8.358
    8PRO      C 4861   8.585   9.558   8.223
    8PRO      O 4862   8.549   9.508   8.112
    9TRP      N 4863   8.505   9.628   8.307
    9TRP      H 4864   8.541   9.658   8.395
    9TRP     CA 4865   8.366   9.669   8.278
    9TRP     HA 4866   8.347   9.683   8.171
    9TRP     CB 4867   8.272   9.560   8.340
    9TRP    HB2 4868   8.309   9.548   8.441
    9TRP    HB3 4869   8.171   9.601   8.340
    9TRP     CG 4870   8.278   9.418   8.278
    9TRP    CD1 4871   8.312   9.297   8.332
    9TRP    HD1 4872   8.332   9.277   8.435
    9TRP    NE1 4873   8.308   9.194   8.239
    9TRP    HE1 4874   8.326   9.095   8.254
    9TRP    CE2 4875   8.291   9.244   8.111
    9TRP    CZ2 4876   8.278   9.189   7.982
    9TRP    HZ2 4877   8.290   9.083   7.967
    9TRP    CH2 4878   8.231   9.268   7.878
    9TRP    HH2 4879   8.216   9.216   7.785
    9TRP    CZ3 4880   8.206   9.404   7.900
    9TRP    HZ3 4881   8.174   9.460   7.814
    9TRP    CE3 4882   8.223   9.463   8.029
    9TRP    HE3 4883   8.192   9.565   8.044
    9TRP    CD2 4884   8.269   9.384   8.135
    9TRP      C 4885   8.336   9.805   8.344
    9TRP      O 4886   8.344   9.821   8.464
   10ARG      N 4887   8.298   9.903   8.264
   10ARG      H 4888   8.315   9.887   8.164
   10ARG     CA 4889   8.256  10.029   8.309
   10ARG     HA 4890   8.320  10.060   8.391
   10ARG     CB 4891   8.259  10.124   8.191
   10ARG    HB2 4892   8.196  10.087   8.110
   10ARG    HB3 4893   8.207  10.213   8.226
   10ARG     CG 4894   8.395  10.159   8.135
   10ARG    HG2 4895   8.447  10.202   8.222
   10ARG    HG3 4896   8.459  10.075   8.113
   10ARG     CD 4897   8.387  10.261   8.015
   10ARG    HD2 4898   8.486  10.300   7.991
   10ARG    HD3 4899   8.335  10.217   7.928
   10ARG     NE 4900   8.318  10.387   8.058
   10ARG     HE 4901   8.366  10.439   8.130
   10ARG     CZ 4902   8.194  10.422   8.019
   10ARG    NH1 4903   8.111  10.331   7.974
   10ARG   HH11 4904   8.121  10.231   7.986
   10ARG   HH12 4905   8.026  10.367   7.933
   10ARG    NH2 4906   8.155  10.548   8.024
   10ARG   HH21 4907   8.216  10.627   8.036
   10ARG   HH22 4908   8.059  10.566   7.998
   10ARG      C 4909   8.113  10.019   8.363
   10ARG      O 4910   8.028   9.946   8.309
   11ARG      N 4911   8.077  10.088   8.473
   11ARG      H 4912   8.151  10.143   8.513
   11ARG     CA 4913   7.946  10.099   8.538
   11ARG     HA 4914   7.877  10.102   8.452
   11ARG     CB 4915   7.908   9.971   8.627
   11ARG    HB2 4916   7.820   9.993   8.688
   11ARG    HB3 4917   7.890   9.884   8.564
   11ARG     CG 4918   8.018   9.938   8.731
   11ARG    HG2 4919   8.111   9.928   8.676
   11ARG    HG3 4920   8.034  10.023   8.798
   11ARG     CD 4921   7.994   9.799   8.808
   11ARG    HD2 4922   7.923   9.828   8.883
   11ARG    HD3 4923   7.960   9.724   8.736
   11ARG     NE 4924   8.120   9.759   8.877
   11ARG     HE 4925   8.163   9.814   8.951
   11ARG     CZ 4926   8.200   9.665   8.834
   11ARG    NH1 4927   8.197   9.592   8.724
   11ARG   HH11 4928   8.121   9.595   8.657
   11ARG   HH12 4929   8.280   9.543   8.697
   11ARG    NH2 4930   8.307   9.640   8.905
   11ARG   HH21 4931   8.330   9.707   8.976
   11ARG   HH22 4932   8.355   9.552   8.903
   11ARG      C 4933   7.935  10.232   8.610
   11ARG      O 4934   8.040  10.272   8.664
   12LYS      N 4935   7.816  10.288   8.629
   12LYS      H 4936   7.741  10.241   8.580
   12LYS     CA 4937   7.789  10.409   8.711
   12LYS     HA 4938   7.835  10.484   8.647
   12LYS     CB 4939   7.634  10.424   8.718
   12LYS    HB2 4940   7.585  10.394   8.626
   12LYS    HB3 4941   7.597  10.350   8.788
   12LYS     CG 4942   7.579  10.559   8.745
   12LYS    HG2 4943   7.625  10.602   8.834
   12LYS    HG3 4944   7.594  10.622   8.657
   12LYS     CD 4945   7.433  10.555   8.769
   12LYS    HD2 4946   7.381  10.522   8.679
   12LYS    HD3 4947   7.410  10.491   8.853
   12LYS     CE 4948   7.390  10.702   8.812
   12LYS    HE2 4949   7.452  10.733   8.896
   12LYS    HE3 4950   7.404  10.783   8.741
   12LYS     NZ 4951   7.249  10.706   8.859
   12LYS    HZ1 4952   7.180  10.707   8.786
   12LYS    HZ2 4953   7.224  10.636   8.926
   12LYS    HZ3 4954   7.239  10.799   8.899
   12LYS      C 4955   7.856  10.427   8.847
   12LYS      O 4956   7.862  10.333   8.923
   13NHE      N 4957   7.886  10.557   8.872
   13NHE    HN1 4958   7.877  10.630   8.803
   13NHE    HN2 4959   7.921  10.588   8.962
    1ILE      N 4960   6.476   6.160   9.235
    1ILE     H1 4961   6.436   6.245   9.198
    1ILE     H2 4962   6.570   6.137   9.203
    1ILE     H3 4963   6.490   6.192   9.330
    1ILE     CA 4964   6.395   6.039   9.248
    1ILE     HA 4965   6.443   5.975   9.321
    1ILE     CB 4966   6.247   6.075   9.294
    1ILE     HB 4967   6.237   6.145   9.377
    1ILE    CG2 4968   6.183   6.142   9.171
    1ILE   HG21 4969   6.126   6.071   9.111
    1ILE   HG22 4970   6.116   6.226   9.196
    1ILE   HG23 4971   6.258   6.183   9.104
    1ILE    CG1 4972   6.167   5.956   9.353
    1ILE   HG12 4973   6.229   5.896   9.420
    1ILE   HG13 4974   6.131   5.893   9.273
    1ILE    CD1 4975   6.044   6.001   9.435
    1ILE   HD11 4976   5.969   6.051   9.375
    1ILE   HD12 4977   5.989   5.911   9.463
    1ILE   HD13 4978   6.064   6.060   9.525
    1ILE      C 4979   6.405   5.952   9.124
    1ILE      O 4980   6.417   6.007   9.016
    2LEU      N 4981   6.399   5.820   9.141
    2LEU      H 4982   6.385   5.787   9.235
    2LEU     CA 4983   6.368   5.726   9.032
    2LEU     HA 4984   6.364   5.774   8.933
    2LEU     CB 4985   6.478   5.623   9.013
    2LEU    HB2 4986   6.456   5.542   9.083
    2LEU    HB3 4987   6.472   5.583   8.913
    2LEU     CG 4988   6.623   5.664   9.039
    2LEU     HG 4989   6.645   5.693   9.142
    2LEU    CD1 4990   6.715   5.536   9.026
    2LEU   HD11 4991   6.708   5.482   9.120
    2LEU   HD12 4992   6.680   5.474   8.943
    2LEU   HD13 4993   6.820   5.555   9.003
    2LEU    CD2 4994   6.672   5.765   8.941
    2LEU   HD21 4995   6.634   5.733   8.844
    2LEU   HD22 4996   6.617   5.858   8.960
    2LEU   HD23 4997   6.778   5.784   8.940
    2LEU      C 4998   6.233   5.654   9.049
    2LEU      O 4999   6.180   5.637   9.160
    3ARG      N 5000   6.170   5.626   8.937
    3ARG      H 5001   6.218   5.646   8.850
    3ARG     CA 5002   6.032   5.570   8.928
    3ARG     HA 5003   6.004   5.536   9.028
    3ARG     CB 5004   5.926   5.677   8.888
    3ARG    HB2 5005   5.829   5.633   8.912
    3ARG    HB3 5006   5.938   5.758   8.961
    3ARG     CG 5007   5.926   5.734   8.743
    3ARG    HG2 5008   6.022   5.776   8.715
    3ARG    HG3 5009   5.896   5.656   8.674
    3ARG     CD 5010   5.823   5.843   8.718
    3ARG    HD2 5011   5.801   5.842   8.610
    3ARG    HD3 5012   5.727   5.810   8.758
    3ARG     NE 5013   5.860   5.975   8.758
    3ARG     HE 5014   5.916   6.023   8.691
    3ARG     CZ 5015   5.813   6.042   8.864
    3ARG    NH1 5016   5.708   6.002   8.933
    3ARG   HH11 5017   5.678   5.907   8.933
    3ARG   HH12 5018   5.668   6.055   9.008
    3ARG    NH2 5019   5.875   6.159   8.892
    3ARG   HH21 5020   5.947   6.198   8.835
    3ARG   HH22 5021   5.834   6.215   8.967
    3ARG      C 5022   6.021   5.453   8.833
    3ARG      O 5023   6.105   5.432   8.746
    4TRP      N 5024   5.930   5.361   8.866
    4TRP      H 5025   5.861   5.382   8.936
    4TRP     CA 5026   5.918   5.230   8.797
    4TRP     HA 5027   5.968   5.235   8.699
    4TRP     CB 5028   5.996   5.123   8.886
    4TRP    HB2 5029   5.973   5.138   8.992
    4TRP    HB3 5030   5.980   5.022   8.850
    4TRP     CG 5031   6.144   5.138   8.884
    4TRP    CD1 5032   6.225   5.095   8.785
    4TRP    HD1 5033   6.195   5.047   8.693
    4TRP    NE1 5034   6.354   5.113   8.823
    4TRP    HE1 5035   6.431   5.093   8.759
    4TRP    CE2 5036   6.365   5.171   8.946
    4TRP    CZ2 5037   6.469   5.214   9.028
    4TRP    HZ2 5038   6.575   5.204   9.009
    4TRP    CH2 5039   6.438   5.281   9.146
    4TRP    HH2 5040   6.513   5.314   9.216
    4TRP    CZ3 5041   6.310   5.324   9.173
    4TRP    HZ3 5042   6.292   5.376   9.268
    4TRP    CE3 5043   6.198   5.284   9.095
    4TRP    HE3 5044   6.096   5.315   9.118
    4TRP    CD2 5045   6.224   5.202   8.980
    4TRP      C 5046   5.763   5.185   8.780
    4TRP      O 5047   5.677   5.246   8.844
    5PRO      N 5048   5.734   5.079   8.706
    5PRO     CD 5049   5.824   5.035   8.603
    5PRO    HD2 5050   5.883   4.950   8.634
    5PRO    HD3 5051   5.892   5.112   8.562
    5PRO     CG 5052   5.728   4.988   8.489
    5PRO    HG2 5053   5.774   4.916   8.421
    5PRO    HG3 5054   5.701   5.076   8.428
    5PRO     CB 5055   5.615   4.927   8.567
    5PRO    HB2 5056   5.644   4.830   8.609
    5PRO    HB3 5057   5.528   4.931   8.502
    5PRO     CA 5058   5.602   5.023   8.684
    5PRO     HA 5059   5.537   5.105   8.653
    5PRO      C 5060   5.539   4.955   8.807
    5PRO      O 5061   5.625   4.927   8.896
    6TRP      N 5062   5.416   4.908   8.815
    6TRP      H 5063   5.360   4.946   8.740
    6TRP     CA 5064   5.358   4.823   8.927
    6TRP     HA 5065   5.393   4.859   9.023
    6TRP     CB 5066   5.201   4.846   8.923
    6TRP    HB2 5067   5.167   4.827   8.821
    6TRP    HB3 5068   5.143   4.779   8.986
    6TRP     CG 5069   5.150   4.982   8.971
    6TRP    CD1 5070   5.121   5.089   8.892
    6TRP    HD1 5071   5.123   5.077   8.783
    6TRP    NE1 5072   5.088   5.207   8.963
    6TRP    HE1 5073   5.075   5.294   8.914
    6TRP    CE2 5074   5.115   5.183   9.094
    6TRP    CZ2 5075   5.111   5.262   9.209
    6TRP    HZ2 5076   5.100   5.370   9.200
    6TRP    CH2 5077   5.130   5.212   9.336
    6TRP    HH2 5078   5.131   5.285   9.416
    6TRP    CZ3 5079   5.164   5.078   9.360
    6TRP    HZ3 5080   5.186   5.040   9.458
    6TRP    CE3 5081   5.173   4.996   9.243
    6TRP    HE3 5082   5.194   4.890   9.254
    6TRP    CD2 5083   5.145   5.043   9.108
    6TRP      C 5084   5.391   4.680   8.922
    6TRP      O 5085   5.366   4.606   9.019
    7TRP      N 5086   5.449   4.634   8.809
    7TRP      H 5087   5.463   4.705   8.738
    7TRP     CA 5088   5.474   4.493   8.780
    7TRP     HA 5089   5.382   4.440   8.805
    7TRP     CB 5090   5.513   4.478   8.633
    7TRP    HB2 5091   5.621   4.477   8.623
    7TRP    HB3 5092   5.487   4.376   8.606
    7TRP     CG 5093   5.449   4.560   8.522
    7TRP    CD1 5094   5.498   4.578   8.396
    7TRP    HD1 5095   5.591   4.534   8.361
    7TRP    NE1 5096   5.422   4.657   8.315
    7TRP    HE1 5097   5.456   4.682   8.224
    7TRP    CE2 5098   5.306   4.690   8.385
    7TRP    CZ2 5099   5.195   4.761   8.343
    7TRP    HZ2 5100   5.195   4.802   8.242
    7TRP    CH2 5101   5.091   4.788   8.433
    7TRP    HH2 5102   5.004   4.841   8.396
    7TRP    CZ3 5103   5.099   4.737   8.563
    7TRP    HZ3 5104   5.023   4.763   8.637
    7TRP    CE3 5105   5.207   4.649   8.597
    7TRP    HE3 5106   5.205   4.591   8.687
    7TRP    CD2 5107   5.320   4.628   8.512
    7TRP      C 5108   5.580   4.445   8.875
    7TRP      O 5109   5.674   4.520   8.901
    8PRO      N 5110   5.586   4.315   8.916
    8PRO     CD 5111   5.503   4.204   8.870
    8PRO    HD2 5112   5.505   4.196   8.761
    8PRO    HD3 5113   5.403   4.219   8.909
    8PRO     CG 5114   5.574   4.080   8.924
    8PRO    HG2 5115   5.636   4.037   8.845
    8PRO    HG3 5116   5.501   4.005   8.949
    8PRO     CB 5117   5.653   4.128   9.048
    8PRO    HB2 5118   5.747   4.073   9.054
    8PRO    HB3 5119   5.587   4.130   9.136
    8PRO     CA 5120   5.687   4.272   9.015
    8PRO     HA 5121   5.678   4.324   9.109
    8PRO      C 5122   5.831   4.280   8.965
    8PRO      O 5123   5.868   4.209   8.866
    9TRP      N 5124   5.909   4.367   9.034
    9TRP      H 5125   5.868   4.422   9.106
    9TRP     CA 5126   6.055   4.383   9.014
    9TRP     HA 5127   6.103   4.293   8.978
    9TRP     CB 5128   6.073   4.503   8.915
    9TRP    HB2 5129   6.011   4.581   8.957
    9TRP    HB3 5130   6.179   4.531   8.919
    9TRP     CG 5131   6.022   4.485   8.770
    9TRP    CD1 5132   5.927   4.552   8.699
    9TRP    HD1 5133   5.875   4.640   8.729
    9TRP    NE1 5134   5.909   4.499   8.571
    9TRP    HE1 5135   5.848   4.532   8.498
    9TRP    CE2 5136   5.978   4.380   8.558
    9TRP    CZ2 5137   5.997   4.285   8.455
    9TRP    HZ2 5138   5.944   4.296   8.362
    9TRP    CH2 5139   6.097   4.191   8.466
    9TRP    HH2 5140   6.111   4.128   8.380
    9TRP    CZ3 5141   6.172   4.183   8.585
    9TRP    HZ3 5142   6.246   4.104   8.588
    9TRP    CE3 5143   6.151   4.274   8.692
    9TRP    HE3 5144   6.218   4.272   8.777
    9TRP    CD2 5145   6.051   4.371   8.681
    9TRP      C 5146   6.122   4.417   9.149
    9TRP      O 5147   6.093   4.515   9.212
   10ARG      N 5148   6.217   4.334   9.189
   10ARG      H 5149   6.221   4.244   9.141
   10ARG     CA 5150   6.297   4.356   9.301
   10ARG     HA 5151   6.235   4.395   9.381
   10ARG     CB 5152   6.365   4.225   9.337
   10ARG    HB2 5153   6.424   4.188   9.253
   10ARG    HB3 5154   6.440   4.252   9.412
   10ARG     CG 5155   6.276   4.114   9.388
   10ARG    HG2 5156   6.228   4.159   9.476
   10ARG    HG3 5157   6.190   4.092   9.327
   10ARG     CD 5158   6.357   3.983   9.425
   10ARG    HD2 5159   6.294   3.914   9.480
   10ARG    HD3 5160   6.404   3.939   9.337
   10ARG     NE 5161   6.460   4.014   9.529
   10ARG     HE 5162   6.424   4.045   9.618
   10ARG     CZ 5163   6.593   4.018   9.505
   10ARG    NH1 5164   6.637   4.036   9.382
   10ARG   HH11 5165   6.581   4.069   9.304
   10ARG   HH12 5166   6.736   4.022   9.370
   10ARG    NH2 5167   6.680   4.004   9.603
   10ARG   HH21 5168   6.658   3.970   9.695
   10ARG   HH22 5169   6.777   4.014   9.578
   10ARG      C 5170   6.403   4.462   9.270
   10ARG      O 5171   6.459   4.467   9.158
   11ARG      N 5172   6.437   4.554   9.362
   11ARG      H 5173   6.387   4.547   9.449
   11ARG     CA 5174   6.540   4.660   9.357
   11ARG     HA 5175   6.622   4.610   9.303
   11ARG     CB 5176   6.495   4.787   9.270
   11ARG    HB2 5177   6.566   4.869   9.286
   11ARG    HB3 5178   6.489   4.761   9.164
   11ARG     CG 5179   6.359   4.845   9.318
   11ARG    HG2 5180   6.288   4.763   9.317
   11ARG    HG3 5181   6.366   4.874   9.423
   11ARG     CD 5182   6.301   4.959   9.221
   11ARG    HD2 5183   6.356   5.046   9.254
   11ARG    HD3 5184   6.317   4.930   9.118
   11ARG     NE 5185   6.158   4.983   9.254
   11ARG     HE 5186   6.126   5.016   9.344
   11ARG     CZ 5187   6.058   4.940   9.181
   11ARG    NH1 5188   6.057   4.863   9.074
   11ARG   HH11 5189   6.141   4.833   9.025
   11ARG   HH12 5190   5.970   4.821   9.046
   11ARG    NH2 5191   5.937   4.967   9.222
   11ARG   HH21 5192   5.929   5.003   9.315
   11ARG   HH22 5193   5.858   4.971   9.160
   11ARG      C 5194   6.588   4.691   9.496
   11ARG      O 5195   6.501   4.687   9.586
   12LYS      N 5196   6.711   4.739   9.515
   12LYS      H 5197   6.768   4.737   9.432
   12LYS     CA 5198   6.766   4.789   9.644
   12LYS     HA 5199   6.775   4.695   9.697
   12LYS     CB 5200   6.905   4.851   9.610
   12LYS    HB2 5201   6.958   4.797   9.533
   12LYS    HB3 5202   6.888   4.947   9.563
   12LYS     CG 5203   7.004   4.860   9.720
   12LYS    HG2 5204   6.961   4.909   9.808
   12LYS    HG3 5205   7.040   4.760   9.744
   12LYS     CD 5206   7.123   4.938   9.681
   12LYS    HD2 5207   7.177   4.888   9.600
   12LYS    HD3 5208   7.095   5.039   9.652
   12LYS     CE 5209   7.213   4.954   9.811
   12LYS    HE2 5210   7.153   4.995   9.891
   12LYS    HE3 5211   7.254   4.863   9.856
   12LYS     NZ 5212   7.326   5.048   9.789
   12LYS    HZ1 5213   7.405   5.010   9.739
   12LYS    HZ2 5214   7.301   5.136   9.748
   12LYS    HZ3 5215   7.365   5.063   9.882
   12LYS      C 5216   6.682   4.878   9.734
   12LYS      O 5217   6.617   4.968   9.686
   13NHE      N 5218   6.706   4.854   9.866
   13NHE    HN1 5219   6.763   4.776   9.898
   13NHE    HN2 5220   6.667   4.911   9.939
    1ILE      N 5221   3.660   9.116   8.084
    1ILE     H1 5222   3.591   9.067   8.139
    1ILE     H2 5223   3.741   9.061   8.055
    1ILE     H3 5224   3.606   9.127   8.000
    1ILE     CA 5225   3.701   9.252   8.120
    1ILE     HA 5226   3.745   9.297   8.032
    1ILE     CB 5227   3.576   9.336   8.171
    1ILE     HB 5228   3.486   9.331   8.111
    1ILE    CG2 5229   3.542   9.277   8.309
    1ILE   HG21 5230   3.587   9.334   8.390
    1ILE   HG22 5231   3.434   9.272   8.329
    1ILE   HG23 5232   3.578   9.176   8.319
    1ILE    CG1 5233   3.597   9.490   8.169
    1ILE   HG12 5234   3.648   9.522   8.078
    1ILE   HG13 5235   3.657   9.519   8.254
    1ILE    CD1 5236   3.465   9.570   8.175
    1ILE   HD11 5237   3.412   9.555   8.269
    1ILE   HD12 5238   3.491   9.675   8.185
    1ILE   HD13 5239   3.396   9.556   8.092
    1ILE      C 5240   3.821   9.251   8.214
    1ILE      O 5241   3.830   9.160   8.294
    2LEU      N 5242   3.909   9.351   8.202
    2LEU      H 5243   3.887   9.421   8.134
    2LEU     CA 5244   4.005   9.385   8.307
    2LEU     HA 5245   4.007   9.313   8.390
    2LEU     CB 5246   4.148   9.380   8.257
    2LEU    HB2 5247   4.169   9.478   8.213
    2LEU    HB3 5248   4.216   9.368   8.341
    2LEU     CG 5249   4.185   9.277   8.151
    2LEU     HG 5250   4.135   9.288   8.055
    2LEU    CD1 5251   4.335   9.302   8.106
    2LEU   HD11 5252   4.334   9.383   8.033
    2LEU   HD12 5253   4.396   9.329   8.193
    2LEU   HD13 5254   4.387   9.216   8.062
    2LEU    CD2 5255   4.176   9.137   8.202
    2LEU   HD21 5256   4.218   9.140   8.303
    2LEU   HD22 5257   4.071   9.116   8.220
    2LEU   HD23 5258   4.221   9.060   8.141
    2LEU      C 5259   3.979   9.522   8.372
    2LEU      O 5260   3.918   9.613   8.314
    3ARG      N 5261   4.011   9.531   8.500
    3ARG      H 5262   4.057   9.452   8.542
    3ARG     CA 5263   3.982   9.648   8.587
    3ARG     HA 5264   3.951   9.731   8.523
    3ARG     CB 5265   3.861   9.624   8.683
    3ARG    HB2 5266   3.832   9.721   8.721
    3ARG    HB3 5267   3.779   9.593   8.618
    3ARG     CG 5268   3.877   9.522   8.801
    3ARG    HG2 5269   3.910   9.424   8.768
    3ARG    HG3 5270   3.947   9.563   8.874
    3ARG     CD 5271   3.751   9.501   8.883
    3ARG    HD2 5272   3.783   9.468   8.983
    3ARG    HD3 5273   3.707   9.598   8.907
    3ARG     NE 5274   3.658   9.407   8.831
    3ARG     HE 5275   3.679   9.311   8.853
    3ARG     CZ 5276   3.540   9.436   8.773
    3ARG    NH1 5277   3.485   9.555   8.779
    3ARG   HH11 5278   3.540   9.638   8.796
    3ARG   HH12 5279   3.394   9.576   8.743
    3ARG    NH2 5280   3.475   9.332   8.716
    3ARG   HH21 5281   3.508   9.237   8.720
    3ARG   HH22 5282   3.382   9.351   8.680
    3ARG      C 5283   4.101   9.693   8.669
    3ARG      O 5284   4.196   9.619   8.690
    4TRP      N 5285   4.107   9.823   8.695
    4TRP      H 5286   4.026   9.881   8.679
    4TRP     CA 5287   4.225   9.889   8.757
    4TRP     HA 5288   4.287   9.814   8.807
    4TRP     CB 5289   4.310   9.952   8.638
    4TRP    HB2 5290   4.244  10.001   8.566
    4TRP    HB3 5291   4.391  10.015   8.675
    4TRP     CG 5292   4.380   9.852   8.552
    4TRP    CD1 5293   4.494   9.790   8.584
    4TRP    HD1 5294   4.551   9.801   8.676
    4TRP    NE1 5295   4.535   9.716   8.478
    4TRP    HE1 5296   4.618   9.656   8.484
    4TRP    CE2 5297   4.449   9.724   8.373
    4TRP    CZ2 5298   4.441   9.667   8.245
    4TRP    HZ2 5299   4.513   9.602   8.198
    4TRP    CH2 5300   4.327   9.692   8.169
    4TRP    HH2 5301   4.315   9.654   8.069
    4TRP    CZ3 5302   4.214   9.751   8.223
    4TRP    HZ3 5303   4.129   9.768   8.157
    4TRP    CE3 5304   4.215   9.812   8.352
    4TRP    HE3 5305   4.128   9.863   8.393
    4TRP    CD2 5306   4.336   9.802   8.428
    4TRP      C 5307   4.181  10.006   8.861
    4TRP      O 5308   4.064  10.044   8.861
    5PRO      N 5309   4.274  10.062   8.937
    5PRO     CD 5310   4.396   9.993   8.967
    5PRO    HD2 5311   4.479  10.029   8.906
    5PRO    HD3 5312   4.393   9.883   8.961
    5PRO     CG 5313   4.425  10.034   9.115
    5PRO    HG2 5314   4.531  10.026   9.141
    5PRO    HG3 5315   4.370   9.965   9.181
    5PRO     CB 5316   4.378  10.176   9.117
    5PRO    HB2 5317   4.449  10.243   9.066
    5PRO    HB3 5318   4.355  10.199   9.221
    5PRO     CA 5319   4.253  10.170   9.032
    5PRO     HA 5320   4.170  10.141   9.096
    5PRO      C 5321   4.220  10.307   8.968
    5PRO      O 5322   4.250  10.312   8.846
    6TRP      N 5323   4.185  10.416   9.034
    6TRP      H 5324   4.157  10.392   9.128
    6TRP     CA 5325   4.172  10.556   8.977
    6TRP     HA 5326   4.125  10.553   8.879
    6TRP     CB 5327   4.072  10.634   9.073
    6TRP    HB2 5328   4.109  10.623   9.175
    6TRP    HB3 5329   4.065  10.741   9.056
    6TRP     CG 5330   3.924  10.594   9.066
    6TRP    CD1 5331   3.862  10.505   9.148
    6TRP    HD1 5332   3.915  10.465   9.234
    6TRP    NE1 5333   3.728  10.476   9.111
    6TRP    HE1 5334   3.676  10.405   9.159
    6TRP    CE2 5335   3.708  10.533   8.989
    6TRP    CZ2 5336   3.600  10.531   8.899
    6TRP    HZ2 5337   3.519  10.461   8.914
    6TRP    CH2 5338   3.597  10.608   8.784
    6TRP    HH2 5339   3.511  10.592   8.720
    6TRP    CZ3 5340   3.704  10.688   8.744
    6TRP    HZ3 5341   3.705  10.743   8.651
    6TRP    CE3 5342   3.817  10.688   8.833
    6TRP    HE3 5343   3.902  10.751   8.810
    6TRP    CD2 5344   3.821  10.614   8.958
    6TRP      C 5345   4.297  10.630   8.960
    6TRP      O 5346   4.300  10.737   8.895
    7TRP      N 5347   4.408  10.577   9.017
    7TRP      H 5348   4.392  10.491   9.066
    7TRP     CA 5349   4.538  10.646   9.024
    7TRP     HA 5350   4.517  10.747   9.057
    7TRP     CB 5351   4.629  10.569   9.120
    7TRP    HB2 5352   4.692  10.500   9.064
    7TRP    HB3 5353   4.701  10.641   9.156
    7TRP     CG 5354   4.579  10.504   9.248
    7TRP    CD1 5355   4.642  10.408   9.321
    7TRP    HD1 5356   4.739  10.368   9.294
    7TRP    NE1 5357   4.575  10.366   9.432
    7TRP    HE1 5358   4.612  10.289   9.486
    7TRP    CE2 5359   4.460  10.444   9.444
    7TRP    CZ2 5360   4.365  10.445   9.544
    7TRP    HZ2 5361   4.375  10.374   9.626
    7TRP    CH2 5362   4.253  10.529   9.533
    7TRP    HH2 5363   4.182  10.530   9.615
    7TRP    CZ3 5364   4.243  10.614   9.422
    7TRP    HZ3 5365   4.153  10.674   9.408
    7TRP    CE3 5366   4.352  10.623   9.331
    7TRP    HE3 5367   4.358  10.702   9.258
    7TRP    CD2 5368   4.462  10.532   9.333
    7TRP      C 5369   4.593  10.654   8.884
    7TRP      O 5370   4.577  10.558   8.808
    8PRO      N 5371   4.675  10.756   8.846
    8PRO     CD 5372   4.731  10.860   8.930
    8PRO    HD2 5373   4.782  10.818   9.017
    8PRO    HD3 5374   4.650  10.928   8.958
    8PRO     CG 5375   4.839  10.924   8.844
    8PRO    HG2 5376   4.936  10.882   8.871
    8PRO    HG3 5377   4.846  11.030   8.866
    8PRO     CB 5378   4.797  10.897   8.698
    8PRO    HB2 5379   4.885  10.881   8.637
    8PRO    HB3 5380   4.724  10.974   8.665
    8PRO     CA 5381   4.722  10.766   8.706
    8PRO     HA 5382   4.640  10.777   8.636
    8PRO      C 5383   4.813  10.653   8.662
    8PRO      O 5384   4.925  10.636   8.719
    9TRP      N 5385   4.763  10.577   8.561
    9TRP      H 5386   4.672  10.596   8.527
    9TRP     CA 5387   4.837  10.470   8.491
    9TRP     HA 5388   4.945  10.485   8.491
    9TRP     CB 5389   4.798  10.335   8.562
    9TRP    HB2 5390   4.690  10.339   8.565
    9TRP    HB3 5391   4.833  10.254   8.497
    9TRP     CG 5392   4.843  10.316   8.709
    9TRP    CD1 5393   4.771  10.297   8.823
    9TRP    HD1 5394   4.665  10.282   8.830
    9TRP    NE1 5395   4.851  10.289   8.937
    9TRP    HE1 5396   4.824  10.272   9.032
    9TRP    CE2 5397   4.982  10.322   8.906
    9TRP    CZ2 5398   5.104  10.330   8.976
    9TRP    HZ2 5399   5.105  10.314   9.083
    9TRP    CH2 5400   5.224  10.337   8.907
    9TRP    HH2 5401   5.312  10.334   8.968
    9TRP    CZ3 5402   5.222  10.349   8.767
    9TRP    HZ3 5403   5.318  10.359   8.720
    9TRP    CE3 5404   5.100  10.346   8.693
    9TRP    HE3 5405   5.103  10.344   8.586
    9TRP    CD2 5406   4.978  10.336   8.763
    9TRP      C 5407   4.795  10.464   8.343
    9TRP      O 5408   4.681  10.443   8.310
   10ARG      N 5409   4.891  10.480   8.254
   10ARG      H 5410   4.979  10.517   8.290
   10ARG     CA 5411   4.873  10.465   8.116
   10ARG     HA 5412   4.778  10.510   8.089
   10ARG     CB 5413   4.992  10.528   8.046
   10ARG    HB2 5414   5.085  10.481   8.079
   10ARG    HB3 5415   4.982  10.496   7.942
   10ARG     CG 5416   5.006  10.678   8.056
   10ARG    HG2 5417   4.911  10.714   8.013
   10ARG    HG3 5418   5.000  10.718   8.156
   10ARG     CD 5419   5.131  10.733   7.977
   10ARG    HD2 5420   5.126  10.841   7.969
   10ARG    HD3 5421   5.225  10.696   8.020
   10ARG     NE 5422   5.122  10.694   7.832
   10ARG     HE 5423   5.044  10.734   7.783
   10ARG     CZ 5424   5.200  10.601   7.774
   10ARG    NH1 5425   5.260  10.510   7.847
   10ARG   HH11 5426   5.237  10.488   7.943
   10ARG   HH12 5427   5.328  10.454   7.798
   10ARG    NH2 5428   5.218  10.601   7.643
   10ARG   HH21 5429   5.194  10.676   7.582
   10ARG   HH22 5430   5.273  10.525   7.607
   10ARG      C 5431   4.864  10.316   8.081
   10ARG      O 5432   4.936  10.232   8.138
   11ARG      N 5433   4.777  10.273   7.987
   11ARG      H 5434   4.721  10.346   7.947
   11ARG     CA 5435   4.756  10.138   7.932
   11ARG     HA 5436   4.859  10.100   7.927
   11ARG     CB 5437   4.672  10.043   8.030
   11ARG    HB2 5438   4.644   9.952   7.976
   11ARG    HB3 5439   4.731  10.018   8.118
   11ARG     CG 5440   4.538  10.106   8.072
   11ARG    HG2 5441   4.560  10.203   8.114
   11ARG    HG3 5442   4.477  10.127   7.983
   11ARG     CD 5443   4.460  10.023   8.185
   11ARG    HD2 5444   4.413   9.945   8.127
   11ARG    HD3 5445   4.532   9.988   8.260
   11ARG     NE 5446   4.353  10.107   8.243
   11ARG     HE 5447   4.274  10.143   8.189
   11ARG     CZ 5448   4.361  10.165   8.361
   11ARG    NH1 5449   4.460  10.171   8.447
   11ARG   HH11 5450   4.547  10.120   8.437
   11ARG   HH12 5451   4.456  10.240   8.520
   11ARG    NH2 5452   4.259  10.237   8.399
   11ARG   HH21 5453   4.190  10.258   8.329
   11ARG   HH22 5454   4.238  10.256   8.496
   11ARG      C 5455   4.703  10.148   7.791
   11ARG      O 5456   4.623  10.241   7.770
   12LYS      N 5457   4.726  10.050   7.704
   12LYS      H 5458   4.791   9.981   7.738
   12LYS     CA 5459   4.667  10.039   7.568
   12LYS     HA 5460   4.720  10.119   7.519
   12LYS     CB 5461   4.709   9.899   7.514
   12LYS    HB2 5462   4.809   9.870   7.545
   12LYS    HB3 5463   4.648   9.824   7.563
   12LYS     CG 5464   4.712   9.880   7.367
   12LYS    HG2 5465   4.618   9.911   7.322
   12LYS    HG3 5466   4.796   9.936   7.325
   12LYS     CD 5467   4.734   9.739   7.330
   12LYS    HD2 5468   4.833   9.706   7.363
   12LYS    HD3 5469   4.656   9.675   7.371
   12LYS     CE 5470   4.719   9.730   7.172
   12LYS    HE2 5471   4.623   9.773   7.143
   12LYS    HE3 5472   4.789   9.786   7.110
   12LYS     NZ 5473   4.718   9.590   7.124
   12LYS    HZ1 5474   4.809   9.546   7.118
   12LYS    HZ2 5475   4.656   9.528   7.173
   12LYS    HZ3 5476   4.691   9.596   7.026
   12LYS      C 5477   4.519  10.068   7.545
   12LYS      O 5478   4.437  10.026   7.624
   13NHE      N 5479   4.497  10.126   7.425
   13NHE    HN1 5480   4.572  10.158   7.364
   13NHE    HN2 5481   4.404  10.143   7.389
    1ILE      N 5482   4.415   8.306   4.199
    1ILE     H1 5483   4.362   8.240   4.253
    1ILE     H2 5484   4.456   8.384   4.251
    1ILE     H3 5485   4.494   8.247   4.178
    1ILE     CA 5486   4.366   8.352   4.068
    1ILE     HA 5487   4.451   8.390   4.013
    1ILE     CB 5488   4.298   8.231   3.990
    1ILE     HB 5489   4.353   8.137   3.988
    1ILE    CG2 5490   4.166   8.204   4.065
    1ILE   HG21 5491   4.082   8.256   4.019
    1ILE   HG22 5492   4.140   8.098   4.072
    1ILE   HG23 5493   4.171   8.240   4.167
    1ILE    CG1 5494   4.283   8.254   3.837
    1ILE   HG12 5495   4.373   8.300   3.795
    1ILE   HG13 5496   4.199   8.320   3.819
    1ILE    CD1 5497   4.259   8.124   3.758
    1ILE   HD11 5498   4.164   8.077   3.783
    1ILE   HD12 5499   4.239   8.152   3.655
    1ILE   HD13 5500   4.338   8.050   3.761
    1ILE      C 5501   4.281   8.476   4.082
    1ILE      O 5502   4.213   8.490   4.182
    2LEU      N 5503   4.287   8.565   3.982
    2LEU      H 5504   4.344   8.540   3.904
    2LEU     CA 5505   4.184   8.669   3.962
    2LEU     HA 5506   4.111   8.675   4.043
    2LEU     CB 5507   4.244   8.808   3.962
    2LEU    HB2 5508   4.277   8.827   3.859
    2LEU    HB3 5509   4.166   8.880   3.985
    2LEU     CG 5510   4.363   8.837   4.052
    2LEU     HG 5511   4.454   8.781   4.029
    2LEU    CD1 5512   4.414   8.984   4.023
    2LEU   HD11 5513   4.477   8.979   3.934
    2LEU   HD12 5514   4.329   9.050   4.007
    2LEU   HD13 5515   4.471   9.032   4.104
    2LEU    CD2 5516   4.328   8.829   4.196
    2LEU   HD21 5517   4.231   8.877   4.206
    2LEU   HD22 5518   4.307   8.724   4.219
    2LEU   HD23 5519   4.401   8.868   4.266
    2LEU      C 5520   4.102   8.649   3.833
    2LEU      O 5521   4.145   8.586   3.735
    3ARG      N 5522   3.976   8.689   3.839
    3ARG      H 5523   3.947   8.736   3.924
    3ARG     CA 5524   3.874   8.667   3.734
    3ARG     HA 5525   3.926   8.633   3.643
    3ARG     CB 5526   3.774   8.552   3.769
    3ARG    HB2 5527   3.723   8.527   3.676
    3ARG    HB3 5528   3.837   8.466   3.791
    3ARG     CG 5529   3.671   8.574   3.883
    3ARG    HG2 5530   3.717   8.603   3.977
    3ARG    HG3 5531   3.598   8.649   3.853
    3ARG     CD 5532   3.583   8.453   3.914
    3ARG    HD2 5533   3.490   8.491   3.958
    3ARG    HD3 5534   3.546   8.412   3.820
    3ARG     NE 5535   3.640   8.355   4.000
    3ARG     HE 5536   3.632   8.376   4.097
    3ARG     CZ 5537   3.687   8.234   3.963
    3ARG    NH1 5538   3.664   8.182   3.844
    3ARG   HH11 5539   3.640   8.238   3.765
    3ARG   HH12 5540   3.691   8.089   3.819
    3ARG    NH2 5541   3.752   8.164   4.059
    3ARG   HH21 5542   3.761   8.196   4.154
    3ARG   HH22 5543   3.780   8.069   4.034
    3ARG      C 5544   3.795   8.791   3.700
    3ARG      O 5545   3.789   8.886   3.777
    4TRP      N 5546   3.754   8.801   3.574
    4TRP      H 5547   3.758   8.720   3.514
    4TRP     CA 5548   3.693   8.924   3.517
    4TRP     HA 5549   3.656   8.988   3.598
    4TRP     CB 5550   3.809   9.002   3.441
    4TRP    HB2 5551   3.870   8.933   3.383
    4TRP    HB3 5552   3.769   9.086   3.384
    4TRP     CG 5553   3.910   9.065   3.531
    4TRP    CD1 5554   3.893   9.180   3.597
    4TRP    HD1 5555   3.805   9.243   3.597
    4TRP    NE1 5556   4.010   9.214   3.658
    4TRP    HE1 5557   4.016   9.295   3.719
    4TRP    CE2 5558   4.107   9.121   3.637
    4TRP    CZ2 5559   4.240   9.104   3.678
    4TRP    HZ2 5560   4.299   9.172   3.738
    4TRP    CH2 5561   4.306   8.986   3.643
    4TRP    HH2 5562   4.408   8.967   3.669
    4TRP    CZ3 5563   4.237   8.878   3.590
    4TRP    HZ3 5564   4.295   8.789   3.565
    4TRP    CE3 5565   4.102   8.888   3.545
    4TRP    HE3 5566   4.050   8.804   3.498
    4TRP    CD2 5567   4.036   9.013   3.565
    4TRP      C 5568   3.573   8.888   3.413
    4TRP      O 5569   3.561   8.772   3.374
    5PRO      N 5570   3.497   8.987   3.367
    5PRO     CD 5571   3.483   9.110   3.440
    5PRO    HD2 5572   3.545   9.189   3.398
    5PRO    HD3 5573   3.502   9.104   3.549
    5PRO     CG 5574   3.333   9.148   3.418
    5PRO    HG2 5575   3.315   9.256   3.430
    5PRO    HG3 5576   3.273   9.097   3.493
    5PRO     CB 5577   3.311   9.104   3.276
    5PRO    HB2 5578   3.359   9.172   3.204
    5PRO    HB3 5579   3.204   9.088   3.266
    5PRO     CA 5580   3.389   8.973   3.271
    5PRO     HA 5581   3.323   8.894   3.307
    5PRO      C 5582   3.434   8.939   3.127
    5PRO      O 5583   3.556   8.962   3.108
    6TRP      N 5584   3.353   8.910   3.027
    6TRP      H 5585   3.261   8.887   3.062
    6TRP     CA 5586   3.392   8.895   2.880
    6TRP     HA 5587   3.487   8.843   2.872
    6TRP     CB 5588   3.281   8.803   2.814
    6TRP    HB2 5589   3.184   8.846   2.837
    6TRP    HB3 5590   3.285   8.797   2.705
    6TRP     CG 5591   3.284   8.654   2.851
    6TRP    CD1 5592   3.209   8.596   2.949
    6TRP    HD1 5593   3.132   8.654   2.999
    6TRP    NE1 5594   3.241   8.459   2.972
    6TRP    HE1 5595   3.198   8.410   3.049
    6TRP    CE2 5596   3.353   8.433   2.901
    6TRP    CZ2 5597   3.436   8.319   2.891
    6TRP    HZ2 5598   3.424   8.238   2.961
    6TRP    CH2 5599   3.540   8.310   2.801
    6TRP    HH2 5600   3.600   8.221   2.808
    6TRP    CZ3 5601   3.577   8.417   2.718
    6TRP    HZ3 5602   3.663   8.412   2.653
    6TRP    CE3 5603   3.497   8.535   2.730
    6TRP    HE3 5604   3.517   8.619   2.665
    6TRP    CD2 5605   3.381   8.546   2.817
    6TRP      C 5606   3.408   9.021   2.806
    6TRP      O 5607   3.460   9.021   2.692
    7TRP      N 5608   3.365   9.134   2.866
    7TRP      H 5609   3.325   9.120   2.958
    7TRP     CA 5610   3.358   9.265   2.800
    7TRP     HA 5611   3.312   9.248   2.704
    7TRP     CB 5612   3.278   9.361   2.889
    7TRP    HB2 5613   3.345   9.419   2.951
    7TRP    HB3 5614   3.238   9.436   2.822
    7TRP     CG 5615   3.156   9.318   2.968
    7TRP    CD1 5616   3.099   9.384   3.073
    7TRP    HD1 5617   3.137   9.478   3.111
    7TRP    NE1 5618   2.990   9.323   3.127
    7TRP    HE1 5619   2.947   9.362   3.210
    7TRP    CE2 5620   2.961   9.211   3.050
    7TRP    CZ2 5621   2.856   9.122   3.061
    7TRP    HZ2 5622   2.783   9.135   3.140
    7TRP    CH2 5623   2.849   9.011   2.975
    7TRP    HH2 5624   2.764   8.945   2.983
    7TRP    CZ3 5625   2.949   8.995   2.877
    7TRP    HZ3 5626   2.949   8.905   2.815
    7TRP    CE3 5627   3.045   9.099   2.858
    7TRP    HE3 5628   3.108   9.101   2.771
    7TRP    CD2 5629   3.061   9.207   2.950
    7TRP      C 5630   3.499   9.311   2.776
    7TRP      O 5631   3.585   9.289   2.862
    8PRO      N 5632   3.530   9.392   2.671
    8PRO     CD 5633   3.438   9.456   2.578
    8PRO    HD2 5634   3.360   9.511   2.631
    8PRO    HD3 5635   3.397   9.377   2.514
    8PRO     CG 5636   3.522   9.559   2.505
    8PRO    HG2 5637   3.507   9.657   2.551
    8PRO    HG3 5638   3.489   9.568   2.403
    8PRO     CB 5639   3.668   9.507   2.514
    8PRO    HB2 5640   3.736   9.592   2.524
    8PRO    HB3 5641   3.687   9.434   2.434
    8PRO     CA 5642   3.671   9.431   2.645
    8PRO     HA 5643   3.734   9.345   2.625
    8PRO      C 5644   3.734   9.517   2.752
    8PRO      O 5645   3.686   9.633   2.777
    9TRP      N 5646   3.839   9.460   2.815
    9TRP      H 5647   3.865   9.367   2.792
    9TRP     CA 5648   3.926   9.528   2.914
    9TRP     HA 5649   3.931   9.636   2.899
    9TRP     CB 5650   3.870   9.491   3.056
    9TRP    HB2 5651   3.859   9.384   3.052
    9TRP    HB3 5652   3.946   9.521   3.129
    9TRP     CG 5653   3.729   9.544   3.092
    9TRP    CD1 5654   3.613   9.480   3.124
    9TRP    HD1 5655   3.602   9.374   3.139
    9TRP    NE1 5656   3.507   9.567   3.147
    9TRP    HE1 5657   3.412   9.545   3.175
    9TRP    CE2 5658   3.542   9.696   3.111
    9TRP    CZ2 5659   3.479   9.822   3.113
    9TRP    HZ2 5660   3.375   9.830   3.141
    9TRP    CH2 5661   3.554   9.937   3.098
    9TRP    HH2 5662   3.500  10.029   3.110
    9TRP    CZ3 5663   3.692   9.927   3.071
    9TRP    HZ3 5664   3.743  10.020   3.056
    9TRP    CE3 5665   3.757   9.800   3.063
    9TRP    HE3 5666   3.864   9.797   3.053
    9TRP    CD2 5667   3.681   9.684   3.080
    9TRP      C 5668   4.071   9.476   2.901
    9TRP      O 5669   4.099   9.360   2.917
   10ARG      N 5670   4.163   9.567   2.876
   10ARG      H 5671   4.129   9.658   2.844
   10ARG     CA 5672   4.301   9.540   2.874
   10ARG     HA 5673   4.316   9.444   2.825
   10ARG     CB 5674   4.370   9.655   2.805
   10ARG    HB2 5675   4.349   9.749   2.856
   10ARG    HB3 5676   4.477   9.639   2.823
   10ARG     CG 5677   4.344   9.672   2.657
   10ARG    HG2 5678   4.375   9.576   2.615
   10ARG    HG3 5679   4.239   9.674   2.629
   10ARG     CD 5680   4.423   9.793   2.594
   10ARG    HD2 5681   4.418   9.789   2.485
   10ARG    HD3 5682   4.391   9.889   2.636
   10ARG     NE 5683   4.570   9.774   2.615
   10ARG     HE 5684   4.610   9.694   2.569
   10ARG     CZ 5685   4.644   9.848   2.701
   10ARG    NH1 5686   4.586   9.910   2.800
   10ARG   HH11 5687   4.492   9.893   2.834
   10ARG   HH12 5688   4.646   9.975   2.851
   10ARG    NH2 5689   4.775   9.857   2.686
   10ARG   HH21 5690   4.825   9.831   2.603
   10ARG   HH22 5691   4.824   9.909   2.757
   10ARG      C 5692   4.353   9.527   3.017
   10ARG      O 5693   4.311   9.600   3.109
   11ARG      N 5694   4.445   9.434   3.048
   11ARG      H 5695   4.473   9.376   2.970
   11ARG     CA 5696   4.514   9.407   3.175
   11ARG     HA 5697   4.531   9.509   3.214
   11ARG     CB 5698   4.423   9.328   3.281
   11ARG    HB2 5699   4.486   9.294   3.365
   11ARG    HB3 5700   4.342   9.392   3.317
   11ARG     CG 5701   4.366   9.197   3.222
   11ARG    HG2 5702   4.314   9.224   3.131
   11ARG    HG3 5703   4.447   9.131   3.190
   11ARG     CD 5704   4.258   9.125   3.318
   11ARG    HD2 5705   4.322   9.074   3.387
   11ARG    HD3 5706   4.193   9.201   3.361
   11ARG     NE 5707   4.184   9.023   3.240
   11ARG     HE 5708   4.228   8.942   3.198
   11ARG     CZ 5709   4.061   9.039   3.197
   11ARG    NH1 5710   3.981   9.143   3.202
   11ARG   HH11 5711   4.003   9.229   3.252
   11ARG   HH12 5712   3.901   9.145   3.142
   11ARG    NH2 5713   4.008   8.941   3.129
   11ARG   HH21 5714   4.070   8.868   3.099
   11ARG   HH22 5715   3.909   8.926   3.121
   11ARG      C 5716   4.650   9.345   3.148
   11ARG      O 5717   4.654   9.266   3.052
   12LYS      N 5718   4.749   9.361   3.236
   12LYS      H 5719   4.728   9.427   3.309
   12LYS     CA 5720   4.881   9.294   3.230
   12LYS     HA 5721   4.923   9.345   3.145
   12LYS     CB 5722   4.954   9.330   3.363
   12LYS    HB2 5723   4.933   9.431   3.396
   12LYS    HB3 5724   4.910   9.271   3.443
   12LYS     CG 5725   5.102   9.323   3.364
   12LYS    HG2 5726   5.137   9.227   3.327
   12LYS    HG3 5727   5.142   9.406   3.304
   12LYS     CD 5728   5.157   9.341   3.500
   12LYS    HD2 5729   5.135   9.441   3.537
   12LYS    HD3 5730   5.119   9.264   3.567
   12LYS     CE 5731   5.314   9.316   3.489
   12LYS    HE2 5732   5.331   9.219   3.443
   12LYS    HE3 5733   5.373   9.383   3.428
   12LYS     NZ 5734   5.378   9.310   3.623
   12LYS    HZ1 5735   5.395   9.399   3.667
   12LYS    HZ2 5736   5.332   9.250   3.690
   12LYS    HZ3 5737   5.472   9.277   3.605
   12LYS      C 5738   4.891   9.145   3.197
   12LYS      O 5739   4.813   9.068   3.248
   13NHE      N 5740   5.002   9.117   3.124
   13NHE    HN1 5741   5.063   9.188   3.086
   13NHE    HN2 5742   5.029   9.022   3.103
    1ILE      N 5743   9.010  10.071  10.801
    1ILE     H1 5744   9.089  10.118  10.761
    1ILE     H2 5745   8.980  10.104  10.893
    1ILE     H3 5746   8.940  10.104  10.738
    1ILE     CA 5747   8.999   9.924  10.794
    1ILE     HA 5748   8.895   9.899  10.808
    1ILE     CB 5749   9.051   9.872  10.653
    1ILE     HB 5750   9.015   9.924  10.565
    1ILE    CG2 5751   9.204   9.891  10.657
    1ILE   HG21 5752   9.255   9.800  10.688
    1ILE   HG22 5753   9.247   9.923  10.561
    1ILE   HG23 5754   9.233   9.967  10.729
    1ILE    CG1 5755   9.004   9.728  10.617
    1ILE   HG12 5756   8.899   9.713  10.642
    1ILE   HG13 5757   9.064   9.656  10.671
    1ILE    CD1 5758   9.017   9.696  10.466
    1ILE   HD11 5759   9.121   9.696  10.432
    1ILE   HD12 5760   8.993   9.591  10.453
    1ILE   HD13 5761   8.957   9.756  10.398
    1ILE      C 5762   9.063   9.858  10.915
    1ILE      O 5763   9.160   9.910  10.965
    2LEU      N 5764   9.006   9.745  10.959
    2LEU      H 5765   8.928   9.711  10.906
    2LEU     CA 5766   9.076   9.650  11.048
    2LEU     HA 5767   9.172   9.688  11.084
    2LEU     CB 5768   8.999   9.627  11.176
    2LEU    HB2 5769   8.927   9.547  11.155
    2LEU    HB3 5770   9.067   9.590  11.252
    2LEU     CG 5771   8.919   9.742  11.237
    2LEU     HG 5772   8.837   9.778  11.175
    2LEU    CD1 5773   8.838   9.687  11.362
    2LEU   HD11 5774   8.749   9.638  11.323
    2LEU   HD12 5775   8.900   9.616  11.417
    2LEU   HD13 5776   8.809   9.762  11.436
    2LEU    CD2 5777   9.006   9.852  11.284
    2LEU   HD21 5778   9.091   9.805  11.333
    2LEU   HD22 5779   9.051   9.898  11.196
    2LEU   HD23 5780   8.960   9.928  11.347
    2LEU      C 5781   9.106   9.515  10.981
    2LEU      O 5782   9.040   9.471  10.885
    3ARG      N 5783   9.217   9.456  11.021
    3ARG      H 5784   9.268   9.499  11.097
    3ARG     CA 5785   9.274   9.333  10.961
    3ARG     HA 5786   9.198   9.289  10.895
    3ARG     CB 5787   9.397   9.361  10.868
    3ARG    HB2 5788   9.412   9.271  10.810
    3ARG    HB3 5789   9.361   9.435  10.796
    3ARG     CG 5790   9.531   9.409  10.932
    3ARG    HG2 5791   9.519   9.497  10.995
    3ARG    HG3 5792   9.574   9.327  10.990
    3ARG     CD 5793   9.641   9.441  10.832
    3ARG    HD2 5794   9.737   9.428  10.885
    3ARG    HD3 5795   9.647   9.360  10.759
    3ARG     NE 5796   9.636   9.571  10.774
    3ARG     HE 5797   9.678   9.642  10.830
    3ARG     CZ 5798   9.599   9.600  10.648
    3ARG    NH1 5799   9.584   9.508  10.555
    3ARG   HH11 5800   9.567   9.412  10.577
    3ARG   HH12 5801   9.565   9.529  10.459
    3ARG    NH2 5802   9.586   9.732  10.620
    3ARG   HH21 5803   9.609   9.805  10.685
    3ARG   HH22 5804   9.567   9.755  10.522
    3ARG      C 5805   9.314   9.229  11.064
    3ARG      O 5806   9.333   9.259  11.181
    4TRP      N 5807   9.303   9.102  11.025
    4TRP      H 5808   9.290   9.081  10.927
    4TRP     CA 5809   9.318   8.986  11.117
    4TRP     HA 5810   9.372   9.018  11.207
    4TRP     CB 5811   9.172   8.942  11.160
    4TRP    HB2 5812   9.105   8.942  11.074
    4TRP    HB3 5813   9.173   8.849  11.216
    4TRP     CG 5814   9.103   9.038  11.252
    4TRP    CD1 5815   9.125   9.047  11.384
    4TRP    HD1 5816   9.196   8.990  11.443
    4TRP    NE1 5817   9.036   9.135  11.437
    4TRP    HE1 5818   9.040   9.161  11.536
    4TRP    CE2 5819   8.953   9.188  11.343
    4TRP    CZ2 5820   8.850   9.283  11.342
    4TRP    HZ2 5821   8.808   9.334  11.427
    4TRP    CH2 5822   8.796   9.321  11.220
    4TRP    HH2 5823   8.714   9.390  11.211
    4TRP    CZ3 5824   8.855   9.285  11.099
    4TRP    HZ3 5825   8.807   9.318  11.008
    4TRP    CE3 5826   8.960   9.189  11.092
    4TRP    HE3 5827   9.004   9.157  10.998
    4TRP    CD2 5828   9.009   9.136  11.216
    4TRP      C 5829   9.395   8.862  11.045
    4TRP      O 5830   9.409   8.864  10.923
    5PRO      N 5831   9.431   8.759  11.119
    5PRO     CD 5832   9.452   8.772  11.261
    5PRO    HD2 5833   9.367   8.735  11.317
    5PRO    HD3 5834   9.476   8.874  11.296
    5PRO     CG 5835   9.575   8.680  11.289
    5PRO    HG2 5836   9.579   8.645  11.393
    5PRO    HG3 5837   9.666   8.737  11.270
    5PRO     CB 5838   9.549   8.566  11.194
    5PRO    HB2 5839   9.468   8.501  11.230
    5PRO    HB3 5840   9.645   8.520  11.176
    5PRO     CA 5841   9.497   8.638  11.071
    5PRO     HA 5842   9.582   8.669  11.012
    5PRO      C 5843   9.408   8.547  10.984
    5PRO      O 5844   9.285   8.572  10.997
    6TRP      N 5845   9.448   8.438  10.920
    6TRP      H 5846   9.549   8.439  10.912
    6TRP     CA 5847   9.360   8.336  10.850
    6TRP     HA 5848   9.279   8.385  10.798
    6TRP     CB 5849   9.451   8.267  10.740
    6TRP    HB2 5850   9.542   8.232  10.789
    6TRP    HB3 5851   9.408   8.178  10.693
    6TRP     CG 5852   9.486   8.351  10.617
    6TRP    CD1 5853   9.600   8.423  10.600
    6TRP    HD1 5854   9.680   8.414  10.673
    6TRP    NE1 5855   9.602   8.503  10.483
    6TRP    HE1 5856   9.677   8.567  10.466
    6TRP    CE2 5857   9.476   8.497  10.430
    6TRP    CZ2 5858   9.415   8.561  10.322
    6TRP    HZ2 5859   9.465   8.644  10.273
    6TRP    CH2 5860   9.288   8.531  10.278
    6TRP    HH2 5861   9.250   8.592  10.198
    6TRP    CZ3 5862   9.206   8.439  10.345
    6TRP    HZ3 5863   9.104   8.420  10.315
    6TRP    CE3 5864   9.265   8.375  10.459
    6TRP    HE3 5865   9.209   8.300  10.512
    6TRP    CD2 5866   9.401   8.399  10.503
    6TRP      C 5867   9.298   8.236  10.938
    6TRP      O 5868   9.208   8.161  10.895
    7TRP      N 5869   9.341   8.231  11.066
    7TRP      H 5870   9.414   8.297  11.088
    7TRP     CA 5871   9.303   8.127  11.162
    7TRP     HA 5872   9.312   8.032  11.110
    7TRP     CB 5873   9.394   8.136  11.285
    7TRP    HB2 5874   9.346   8.196  11.362
    7TRP    HB3 5875   9.393   8.037  11.330
    7TRP     CG 5876   9.542   8.169  11.275
    7TRP    CD1 5877   9.623   8.211  11.377
    7TRP    HD1 5878   9.588   8.226  11.478
    7TRP    NE1 5879   9.752   8.233  11.341
    7TRP    HE1 5880   9.816   8.273  11.409
    7TRP    CE2 5881   9.767   8.196  11.208
    7TRP    CZ2 5882   9.882   8.193  11.130
    7TRP    HZ2 5883   9.976   8.226  11.174
    7TRP    CH2 5884   9.873   8.156  10.996
    7TRP    HH2 5885   9.965   8.151  10.938
    7TRP    CZ3 5886   9.748   8.119  10.943
    7TRP    HZ3 5887   9.739   8.097  10.837
    7TRP    CE3 5888   9.637   8.106  11.032
    7TRP    HE3 5889   9.546   8.057  11.000
    7TRP    CD2 5890   9.639   8.153  11.167
    7TRP      C 5891   9.157   8.147  11.195
    7TRP      O 5892   9.115   8.262  11.207
    8PRO      N 5893   9.077   8.043  11.230
    8PRO     CD 5894   9.117   7.905  11.254
    8PRO    HD2 5895   9.199   7.899  11.325
    8PRO    HD3 5896   9.142   7.861  11.157
    8PRO     CG 5897   8.996   7.842  11.321
    8PRO    HG2 5898   9.011   7.840  11.429
    8PRO    HG3 5899   8.987   7.738  11.291
    8PRO     CB 5900   8.874   7.926  11.276
    8PRO    HB2 5901   8.802   7.933  11.357
    8PRO    HB3 5902   8.839   7.891  11.178
    8PRO     CA 5903   8.933   8.064  11.255
    8PRO     HA 5904   8.881   8.103  11.168
    8PRO      C 5905   8.902   8.151  11.375
    8PRO      O 5906   8.936   8.113  11.492
    9TRP      N 5907   8.838   8.267  11.346
    9TRP      H 5908   8.820   8.290  11.251
    9TRP     CA 5909   8.785   8.363  11.446
    9TRP     HA 5910   8.757   8.315  11.540
    9TRP     CB 5911   8.895   8.472  11.466
    9TRP    HB2 5912   8.920   8.502  11.365
    9TRP    HB3 5913   8.848   8.555  11.520
    9TRP     CG 5914   9.029   8.428  11.530
    9TRP    CD1 5915   9.157   8.430  11.483
    9TRP    HD1 5916   9.190   8.474  11.391
    9TRP    NE1 5917   9.248   8.376  11.572
    9TRP    HE1 5918   9.349   8.369  11.563
    9TRP    CE2 5919   9.183   8.316  11.678
    9TRP    CZ2 5920   9.221   8.248  11.796
    9TRP    HZ2 5921   9.325   8.227  11.814
    9TRP    CH2 5922   9.129   8.226  11.896
    9TRP    HH2 5923   9.168   8.182  11.986
    9TRP    CZ3 5924   8.994   8.262  11.875
    9TRP    HZ3 5925   8.927   8.238  11.956
    9TRP    CE3 5926   8.952   8.326  11.755
    9TRP    HE3 5927   8.850   8.362  11.748
    9TRP    CD2 5928   9.046   8.350  11.654
    9TRP      C 5929   8.656   8.428  11.393
    9TRP      O 5930   8.655   8.493  11.291
   10ARG      N 5931   8.547   8.413  11.467
   10ARG      H 5932   8.552   8.340  11.538
   10ARG     CA 5933   8.425   8.477  11.440
   10ARG     HA 5934   8.408   8.474  11.333
   10ARG     CB 5935   8.318   8.406  11.520
   10ARG    HB2 5936   8.341   8.408  11.627
   10ARG    HB3 5937   8.230   8.471  11.512
   10ARG     CG 5938   8.284   8.264  11.480
   10ARG    HG2 5939   8.255   8.275  11.374
   10ARG    HG3 5940   8.369   8.198  11.471
   10ARG     CD 5941   8.168   8.201  11.567
   10ARG    HD2 5942   8.134   8.109  11.523
   10ARG    HD3 5943   8.199   8.191  11.672
   10ARG     NE 5944   8.045   8.285  11.557
   10ARG     HE 5945   8.004   8.290  11.465
   10ARG     CZ 5946   7.998   8.363  11.657
   10ARG    NH1 5947   8.078   8.402  11.754
   10ARG   HH11 5948   8.179   8.398  11.750
   10ARG   HH12 5949   8.033   8.446  11.832
   10ARG    NH2 5950   7.871   8.400  11.660
   10ARG   HH21 5951   7.799   8.359  11.604
   10ARG   HH22 5952   7.845   8.462  11.735
   10ARG      C 5953   8.433   8.623  11.482
   10ARG      O 5954   8.494   8.658  11.585
   11ARG      N 5955   8.375   8.719  11.407
   11ARG      H 5956   8.330   8.684  11.324
   11ARG     CA 5957   8.364   8.864  11.430
   11ARG     HA 5958   8.347   8.868  11.539
   11ARG     CB 5959   8.499   8.944  11.398
   11ARG    HB2 5960   8.478   9.052  11.399
   11ARG    HB3 5961   8.576   8.919  11.471
   11ARG     CG 5962   8.550   8.916  11.255
   11ARG    HG2 5963   8.559   8.808  11.245
   11ARG    HG3 5964   8.474   8.944  11.181
   11ARG     CD 5965   8.695   8.978  11.225
   11ARG    HD2 5966   8.671   9.080  11.204
   11ARG    HD3 5967   8.759   8.962  11.312
   11ARG     NE 5968   8.750   8.917  11.101
   11ARG     HE 5969   8.707   8.927  11.010
   11ARG     CZ 5970   8.844   8.825  11.100
   11ARG    NH1 5971   8.903   8.761  11.199
   11ARG   HH11 5972   8.888   8.783  11.297
   11ARG   HH12 5973   8.953   8.677  11.178
   11ARG    NH2 5974   8.883   8.781  10.984
   11ARG   HH21 5975   8.826   8.805  10.905
   11ARG   HH22 5976   8.973   8.738  10.968
   11ARG      C 5977   8.240   8.917  11.363
   11ARG      O 5978   8.212   8.865  11.252
   12LYS      N 5979   8.179   9.026  11.410
   12LYS      H 5980   8.215   9.056  11.499
   12LYS     CA 5981   8.067   9.098  11.345
   12LYS     HA 5982   7.988   9.025  11.359
   12LYS     CB 5983   8.044   9.227  11.429
   12LYS    HB2 5984   8.060   9.212  11.535
   12LYS    HB3 5985   8.123   9.298  11.404
   12LYS     CG 5986   7.910   9.291  11.422
   12LYS    HG2 5987   7.880   9.307  11.319
   12LYS    HG3 5988   7.838   9.228  11.475
   12LYS     CD 5989   7.908   9.422  11.490
   12LYS    HD2 5990   7.927   9.410  11.596
   12LYS    HD3 5991   7.980   9.490  11.445
   12LYS     CE 5992   7.765   9.485  11.462
   12LYS    HE2 5993   7.747   9.486  11.355
   12LYS    HE3 5994   7.676   9.434  11.500
   12LYS     NZ 5995   7.757   9.627  11.507
   12LYS    HZ1 5996   7.743   9.640  11.606
   12LYS    HZ2 5997   7.833   9.685  11.477
   12LYS    HZ3 5998   7.669   9.661  11.468
   12LYS      C 5999   8.069   9.125  11.195
   12LYS      O 6000   8.171   9.163  11.143
   13NHE      N 6001   7.945   9.119  11.140
   13NHE    HN1 6002   7.863   9.086  11.192
   13NHE    HN2 6003   7.927   9.144  11.045
    1ILE      N 6004   3.345   8.961   4.946
    1ILE     H1 6005   3.392   8.885   4.992
    1ILE     H2 6006   3.403   9.022   4.888
    1ILE     H3 6007   3.292   8.907   4.879
    1ILE     CA 6008   3.244   9.041   5.017
    1ILE     HA 6009   3.182   9.089   4.943
    1ILE     CB 6010   3.156   8.947   5.111
    1ILE     HB 6011   3.119   8.854   5.067
    1ILE    CG2 6012   3.251   8.906   5.226
    1ILE   HG21 6013   3.239   8.971   5.313
    1ILE   HG22 6014   3.237   8.803   5.260
    1ILE   HG23 6015   3.355   8.914   5.196
    1ILE    CG1 6016   3.021   9.009   5.156
    1ILE   HG12 6017   2.972   9.060   5.074
    1ILE   HG13 6018   3.039   9.080   5.236
    1ILE    CD1 6019   2.920   8.904   5.209
    1ILE   HD11 6020   2.955   8.855   5.299
    1ILE   HD12 6021   2.835   8.959   5.248
    1ILE   HD13 6022   2.887   8.829   5.137
    1ILE      C 6023   3.306   9.161   5.086
    1ILE      O 6024   3.419   9.150   5.129
    2LEU      N 6025   3.232   9.272   5.093
    2LEU      H 6026   3.139   9.266   5.056
    2LEU     CA 6027   3.262   9.381   5.188
    2LEU     HA 6028   3.357   9.368   5.241
    2LEU     CB 6029   3.282   9.513   5.117
    2LEU    HB2 6030   3.182   9.557   5.105
    2LEU    HB3 6031   3.339   9.580   5.181
    2LEU     CG 6032   3.347   9.514   4.979
    2LEU     HG 6033   3.290   9.462   4.901
    2LEU    CD1 6034   3.343   9.662   4.922
    2LEU   HD11 6035   3.244   9.678   4.881
    2LEU   HD12 6036   3.364   9.733   5.002
    2LEU   HD13 6037   3.418   9.685   4.845
    2LEU    CD2 6038   3.489   9.470   4.983
    2LEU   HD21 6039   3.532   9.517   5.071
    2LEU   HD22 6040   3.489   9.364   5.009
    2LEU   HD23 6041   3.547   9.487   4.894
    2LEU      C 6042   3.154   9.397   5.297
    2LEU      O 6043   3.037   9.360   5.282
    3ARG      N 6044   3.199   9.439   5.414
    3ARG      H 6045   3.297   9.463   5.421
    3ARG     CA 6046   3.118   9.448   5.538
    3ARG     HA 6047   3.012   9.437   5.510
    3ARG     CB 6048   3.146   9.332   5.639
    3ARG    HB2 6049   3.064   9.333   5.710
    3ARG    HB3 6050   3.131   9.240   5.580
    3ARG     CG 6051   3.283   9.327   5.713
    3ARG    HG2 6052   3.368   9.329   5.645
    3ARG    HG3 6053   3.289   9.409   5.783
    3ARG     CD 6054   3.302   9.205   5.802
    3ARG    HD2 6055   3.374   9.233   5.880
    3ARG    HD3 6056   3.212   9.191   5.863
    3ARG     NE 6057   3.346   9.086   5.737
    3ARG     HE 6058   3.445   9.082   5.723
    3ARG     CZ 6059   3.272   8.978   5.711
    3ARG    NH1 6060   3.153   8.958   5.764
    3ARG   HH11 6061   3.097   9.034   5.798
    3ARG   HH12 6062   3.100   8.875   5.751
    3ARG    NH2 6063   3.330   8.883   5.633
    3ARG   HH21 6064   3.425   8.889   5.602
    3ARG   HH22 6065   3.278   8.796   5.621
    3ARG      C 6066   3.134   9.579   5.611
    3ARG      O 6067   3.231   9.652   5.592
    4TRP      N 6068   3.027   9.623   5.677
    4TRP      H 6069   2.950   9.560   5.693
    4TRP     CA 6070   3.017   9.758   5.737
    4TRP     HA 6071   3.117   9.801   5.750
    4TRP     CB 6072   2.938   9.849   5.634
    4TRP    HB2 6073   2.852   9.795   5.593
    4TRP    HB3 6074   2.913   9.946   5.677
    4TRP     CG 6075   3.015   9.883   5.511
    4TRP    CD1 6076   3.109   9.978   5.502
    4TRP    HD1 6077   3.145  10.042   5.582
    4TRP    NE1 6078   3.148   9.991   5.373
    4TRP    HE1 6079   3.224  10.053   5.346
    4TRP    CE2 6080   3.083   9.903   5.291
    4TRP    CZ2 6081   3.087   9.872   5.155
    4TRP    HZ2 6082   3.146   9.920   5.078
    4TRP    CH2 6083   3.011   9.765   5.109
    4TRP    HH2 6084   3.006   9.736   5.005
    4TRP    CZ3 6085   2.949   9.676   5.196
    4TRP    HZ3 6086   2.891   9.595   5.154
    4TRP    CE3 6087   2.941   9.702   5.336
    4TRP    HE3 6088   2.888   9.635   5.405
    4TRP    CD2 6089   3.006   9.820   5.385
    4TRP      C 6090   2.938   9.755   5.880
    4TRP      O 6091   2.876   9.653   5.910
    5PRO      N 6092   2.936   9.864   5.954
    5PRO     CD 6093   3.038   9.965   5.941
    5PRO    HD2 6094   3.003  10.049   5.883
    5PRO    HD3 6095   3.135   9.930   5.900
    5PRO     CG 6096   3.061  10.013   6.088
    5PRO    HG2 6097   3.102  10.114   6.093
    5PRO    HG3 6098   3.133   9.946   6.135
    5PRO     CB 6099   2.921  10.007   6.144
    5PRO    HB2 6100   2.859  10.090   6.106
    5PRO    HB3 6101   2.933   9.997   6.251
    5PRO     CA 6102   2.867   9.880   6.081
    5PRO     HA 6103   2.897   9.796   6.145
    5PRO      C 6104   2.713   9.881   6.071
    5PRO      O 6105   2.672   9.904   5.954
    6TRP      N 6106   2.630   9.883   6.174
    6TRP      H 6107   2.679   9.854   6.258
    6TRP     CA 6108   2.479   9.904   6.169
    6TRP     HA 6109   2.437   9.852   6.083
    6TRP     CB 6110   2.420   9.836   6.299
    6TRP    HB2 6111   2.475   9.875   6.385
    6TRP    HB3 6112   2.315   9.858   6.319
    6TRP     CG 6113   2.418   9.683   6.302
    6TRP    CD1 6114   2.513   9.604   6.359
    6TRP    HD1 6115   2.593   9.650   6.418
    6TRP    NE1 6116   2.495   9.465   6.336
    6TRP    HE1 6117   2.565   9.399   6.366
    6TRP    CE2 6118   2.396   9.453   6.244
    6TRP    CZ2 6119   2.340   9.344   6.176
    6TRP    HZ2 6120   2.389   9.248   6.180
    6TRP    CH2 6121   2.229   9.354   6.095
    6TRP    HH2 6122   2.200   9.264   6.043
    6TRP    CZ3 6123   2.168   9.477   6.067
    6TRP    HZ3 6124   2.085   9.487   5.998
    6TRP    CE3 6125   2.226   9.591   6.132
    6TRP    HE3 6126   2.181   9.689   6.118
    6TRP    CD2 6127   2.338   9.583   6.224
    6TRP      C 6128   2.436  10.044   6.157
    6TRP      O 6129   2.317  10.072   6.131
    7TRP      N 6130   2.530  10.140   6.176
    7TRP      H 6131   2.622  10.104   6.196
    7TRP     CA 6132   2.501  10.283   6.185
    7TRP     HA 6133   2.417  10.293   6.252
    7TRP     CB 6134   2.627  10.356   6.235
    7TRP    HB2 6135   2.684  10.394   6.151
    7TRP    HB3 6136   2.591  10.447   6.281
    7TRP     CG 6137   2.719  10.298   6.341
    7TRP    CD1 6138   2.846  10.337   6.368
    7TRP    HD1 6139   2.896  10.417   6.315
    7TRP    NE1 6140   2.908  10.268   6.468
    7TRP    HE1 6141   3.005  10.286   6.488
    7TRP    CE2 6142   2.814  10.180   6.523
    7TRP    CZ2 6143   2.827  10.095   6.631
    7TRP    HZ2 6144   2.922  10.090   6.683
    7TRP    CH2 6145   2.721  10.010   6.666
    7TRP    HH2 6146   2.733   9.947   6.753
    7TRP    CZ3 6147   2.602  10.016   6.592
    7TRP    HZ3 6148   2.522   9.946   6.612
    7TRP    CE3 6149   2.587  10.118   6.492
    7TRP    HE3 6150   2.491  10.140   6.449
    7TRP    CD2 6151   2.696  10.199   6.447
    7TRP      C 6152   2.457  10.329   6.048
    7TRP      O 6153   2.513  10.283   5.949
    8PRO      N 6154   2.371  10.433   6.033
    8PRO     CD 6155   2.319  10.522   6.137
    8PRO    HD2 6156   2.401  10.564   6.197
    8PRO    HD3 6157   2.249  10.464   6.198
    8PRO     CG 6158   2.256  10.637   6.061
    8PRO    HG2 6159   2.327  10.721   6.057
    8PRO    HG3 6160   2.170  10.674   6.115
    8PRO     CB 6161   2.219  10.580   5.922
    8PRO    HB2 6162   2.233  10.657   5.846
    8PRO    HB3 6163   2.121  10.529   5.928
    8PRO     CA 6164   2.323  10.473   5.899
    8PRO     HA 6165   2.269  10.392   5.850
    8PRO      C 6166   2.431  10.526   5.807
    8PRO      O 6167   2.493  10.633   5.837
    9TRP      N 6168   2.452  10.451   5.696
    9TRP      H 6169   2.401  10.366   5.684
    9TRP     CA 6170   2.542  10.488   5.584
    9TRP     HA 6171   2.553  10.596   5.572
    9TRP     CB 6172   2.680  10.418   5.612
    9TRP    HB2 6173   2.652  10.316   5.633
    9TRP    HB3 6174   2.737  10.425   5.519
    9TRP     CG 6175   2.759  10.465   5.736
    9TRP    CD1 6176   2.800  10.398   5.848
    9TRP    HD1 6177   2.791  10.293   5.866
    9TRP    NE1 6178   2.867  10.481   5.938
    9TRP    HE1 6179   2.909  10.456   6.026
    9TRP    CE2 6180   2.857  10.613   5.900
    9TRP    CZ2 6181   2.903  10.737   5.950
    9TRP    HZ2 6182   2.955  10.740   6.044
    9TRP    CH2 6183   2.900  10.849   5.869
    9TRP    HH2 6184   2.946  10.937   5.911
    9TRP    CZ3 6185   2.840  10.841   5.742
    9TRP    HZ3 6186   2.837  10.934   5.687
    9TRP    CE3 6187   2.787  10.719   5.692
    9TRP    HE3 6188   2.752  10.715   5.590
    9TRP    CD2 6189   2.792  10.604   5.772
    9TRP      C 6190   2.484  10.437   5.451
    9TRP      O 6191   2.464  10.319   5.431
   10ARG      N 6192   2.461  10.528   5.358
   10ARG      H 6193   2.460  10.625   5.390
   10ARG     CA 6194   2.421  10.497   5.227
   10ARG     HA 6195   2.348  10.417   5.231
   10ARG     CB 6196   2.367  10.624   5.164
   10ARG    HB2 6197   2.443  10.703   5.165
   10ARG    HB3 6198   2.357  10.600   5.058
   10ARG     CG 6199   2.238  10.679   5.220
   10ARG    HG2 6200   2.168  10.596   5.207
   10ARG    HG3 6201   2.236  10.691   5.327
   10ARG     CD 6202   2.190  10.810   5.145
   10ARG    HD2 6203   2.088  10.834   5.173
   10ARG    HD3 6204   2.261  10.892   5.159
   10ARG     NE 6205   2.171  10.781   4.999
   10ARG     HE 6206   2.099  10.714   4.978
   10ARG     CZ 6207   2.253  10.827   4.902
   10ARG    NH1 6208   2.375  10.864   4.931
   10ARG   HH11 6209   2.424  10.842   5.017
   10ARG   HH12 6210   2.425  10.911   4.857
   10ARG    NH2 6211   2.211  10.836   4.777
   10ARG   HH21 6212   2.116  10.830   4.748
   10ARG   HH22 6213   2.280  10.866   4.710
   10ARG      C 6214   2.541  10.446   5.147
   10ARG      O 6215   2.654  10.495   5.162
   11ARG      N 6216   2.526  10.345   5.059
   11ARG      H 6217   2.432  10.308   5.054
   11ARG     CA 6218   2.624  10.284   4.967
   11ARG     HA 6219   2.681  10.372   4.934
   11ARG     CB 6220   2.725  10.184   5.040
   11ARG    HB2 6221   2.782  10.128   4.965
   11ARG    HB3 6222   2.793  10.239   5.106
   11ARG     CG 6223   2.651  10.074   5.121
   11ARG    HG2 6224   2.583  10.125   5.188
   11ARG    HG3 6225   2.586  10.016   5.055
   11ARG     CD 6226   2.749   9.984   5.212
   11ARG    HD2 6227   2.787   9.914   5.140
   11ARG    HD3 6228   2.823  10.049   5.259
   11ARG     NE 6229   2.667   9.908   5.310
   11ARG     HE 6230   2.598   9.839   5.283
   11ARG     CZ 6231   2.659   9.939   5.437
   11ARG    NH1 6232   2.707  10.041   5.504
   11ARG   HH11 6233   2.770  10.110   5.464
   11ARG   HH12 6234   2.670  10.061   5.595
   11ARG    NH2 6235   2.584   9.863   5.512
   11ARG   HH21 6236   2.523   9.799   5.465
   11ARG   HH22 6237   2.595   9.855   5.612
   11ARG      C 6238   2.552  10.227   4.847
   11ARG      O 6239   2.441  10.174   4.870
   12LYS      N 6240   2.616  10.216   4.731
   12LYS      H 6241   2.705  10.262   4.729
   12LYS     CA 6242   2.564  10.148   4.609
   12LYS     HA 6243   2.486  10.218   4.582
   12LYS     CB 6244   2.681  10.147   4.507
   12LYS    HB2 6245   2.741  10.236   4.511
   12LYS    HB3 6246   2.752  10.071   4.538
   12LYS     CG 6247   2.646  10.135   4.363
   12LYS    HG2 6248   2.580  10.050   4.346
   12LYS    HG3 6249   2.600  10.228   4.329
   12LYS     CD 6250   2.766  10.115   4.279
   12LYS    HD2 6251   2.830  10.203   4.284
   12LYS    HD3 6252   2.819  10.025   4.308
   12LYS     CE 6253   2.714  10.088   4.131
   12LYS    HE2 6254   2.643  10.006   4.133
   12LYS    HE3 6255   2.658  10.167   4.080
   12LYS     NZ 6256   2.824  10.046   4.040
   12LYS    HZ1 6257   2.883  10.120   4.006
   12LYS    HZ2 6258   2.883   9.973   4.076
   12LYS    HZ3 6259   2.776  10.015   3.956
   12LYS      C 6260   2.494  10.013   4.621
   12LYS      O 6261   2.541   9.928   4.693
   13NHE      N 6262   2.393  10.000   4.530
   13NHE    HN1 6263   2.360  10.077   4.473
   13NHE    HN2 6264   2.344   9.913   4.517
    1ILE      N 6265   2.124   2.516   8.772
    1ILE     H1 6266   2.196   2.574   8.811
    1ILE     H2 6267   2.042   2.500   8.831
    1ILE     H3 6268   2.091   2.579   8.701
    1ILE     CA 6269   2.159   2.393   8.699
    1ILE     HA 6270   2.074   2.367   8.637
    1ILE     CB 6271   2.289   2.416   8.611
    1ILE     HB 6272   2.292   2.507   8.551
    1ILE    CG2 6273   2.405   2.425   8.713
    1ILE   HG21 6274   2.454   2.330   8.726
    1ILE   HG22 6275   2.481   2.499   8.686
    1ILE   HG23 6276   2.369   2.455   8.810
    1ILE    CG1 6277   2.310   2.312   8.498
    1ILE   HG12 6278   2.215   2.289   8.447
    1ILE   HG13 6279   2.349   2.220   8.540
    1ILE    CD1 6280   2.408   2.358   8.389
    1ILE   HD11 6281   2.509   2.372   8.426
    1ILE   HD12 6282   2.424   2.275   8.321
    1ILE   HD13 6283   2.379   2.446   8.332
    1ILE      C 6284   2.164   2.273   8.792
    1ILE      O 6285   2.202   2.290   8.906
    2LEU      N 6286   2.126   2.155   8.742
    2LEU      H 6287   2.100   2.154   8.644
    2LEU     CA 6288   2.161   2.027   8.804
    2LEU     HA 6289   2.209   2.037   8.902
    2LEU     CB 6290   2.038   1.945   8.837
    2LEU    HB2 6291   2.013   1.888   8.747
    2LEU    HB3 6292   2.063   1.872   8.914
    2LEU     CG 6293   1.911   2.016   8.880
    2LEU     HG 6294   1.867   2.081   8.804
    2LEU    CD1 6295   1.795   1.909   8.895
    2LEU   HD11 6296   1.756   1.890   8.795
    2LEU   HD12 6297   1.834   1.818   8.940
    2LEU   HD13 6298   1.711   1.938   8.960
    2LEU    CD2 6299   1.926   2.086   9.010
    2LEU   HD21 6300   1.981   2.017   9.074
    2LEU   HD22 6301   1.996   2.168   8.996
    2LEU   HD23 6302   1.835   2.121   9.057
    2LEU      C 6303   2.258   1.942   8.719
    2LEU      O 6304   2.267   1.954   8.596
    3ARG      N 6305   2.342   1.867   8.788
    3ARG      H 6306   2.331   1.865   8.888
    3ARG     CA 6307   2.453   1.788   8.729
    3ARG     HA 6308   2.439   1.786   8.620
    3ARG     CB 6309   2.593   1.855   8.750
    3ARG    HB2 6310   2.661   1.805   8.681
    3ARG    HB3 6311   2.582   1.956   8.710
    3ARG     CG 6312   2.654   1.860   8.893
    3ARG    HG2 6313   2.588   1.905   8.966
    3ARG    HG3 6314   2.681   1.759   8.924
    3ARG     CD 6315   2.787   1.934   8.903
    3ARG    HD2 6316   2.840   1.893   8.990
    3ARG    HD3 6317   2.852   1.900   8.822
    3ARG     NE 6318   2.778   2.075   8.915
    3ARG     HE 6319   2.762   2.108   9.008
    3ARG     CZ 6320   2.806   2.165   8.818
    3ARG    NH1 6321   2.869   2.133   8.707
    3ARG   HH11 6322   2.870   2.039   8.672
    3ARG   HH12 6323   2.898   2.199   8.638
    3ARG    NH2 6324   2.776   2.294   8.846
    3ARG   HH21 6325   2.739   2.324   8.935
    3ARG   HH22 6326   2.805   2.363   8.778
    3ARG      C 6327   2.460   1.646   8.780
    3ARG      O 6328   2.405   1.613   8.884
    4TRP      N 6329   2.506   1.556   8.693
    4TRP      H 6330   2.552   1.586   8.609
    4TRP     CA 6331   2.501   1.409   8.717
    4TRP     HA 6332   2.488   1.389   8.824
    4TRP     CB 6333   2.373   1.354   8.641
    4TRP    HB2 6334   2.364   1.399   8.542
    4TRP    HB3 6335   2.369   1.245   8.642
    4TRP     CG 6336   2.243   1.393   8.704
    4TRP    CD1 6337   2.188   1.335   8.811
    4TRP    HD1 6338   2.230   1.254   8.870
    4TRP    NE1 6339   2.064   1.387   8.832
    4TRP    HE1 6340   2.009   1.360   8.913
    4TRP    CE2 6341   2.033   1.483   8.741
    4TRP    CZ2 6342   1.925   1.569   8.719
    4TRP    HZ2 6343   1.832   1.572   8.774
    4TRP    CH2 6344   1.935   1.665   8.619
    4TRP    HH2 6345   1.855   1.732   8.593
    4TRP    CZ3 6346   2.056   1.692   8.556
    4TRP    HZ3 6347   2.057   1.767   8.478
    4TRP    CE3 6348   2.170   1.608   8.573
    4TRP    HE3 6349   2.264   1.627   8.520
    4TRP    CD2 6350   2.159   1.499   8.665
    4TRP      C 6351   2.634   1.335   8.661
    4TRP      O 6352   2.710   1.397   8.586
    5PRO      N 6353   2.653   1.207   8.690
    5PRO     CD 6354   2.591   1.147   8.805
    5PRO    HD2 6355   2.504   1.089   8.778
    5PRO    HD3 6356   2.564   1.217   8.887
    5PRO     CG 6357   2.700   1.049   8.859
    5PRO    HG2 6358   2.659   0.967   8.918
    5PRO    HG3 6359   2.769   1.105   8.924
    5PRO     CB 6360   2.761   0.999   8.730
    5PRO    HB2 6361   2.694   0.928   8.680
    5PRO    HB3 6362   2.861   0.965   8.755
    5PRO     CA 6363   2.764   1.124   8.645
    5PRO     HA 6364   2.856   1.178   8.668
    5PRO      C 6365   2.763   1.092   8.494
    5PRO      O 6366   2.650   1.111   8.441
    6TRP      N 6367   2.859   1.028   8.429
    6TRP      H 6368   2.944   1.029   8.483
    6TRP     CA 6369   2.853   0.977   8.286
    6TRP     HA 6370   2.801   1.049   8.222
    6TRP     CB 6371   3.003   0.969   8.235
    6TRP    HB2 6372   3.060   0.912   8.308
    6TRP    HB3 6373   3.017   0.918   8.140
    6TRP     CG 6374   3.073   1.103   8.206
    6TRP    CD1 6375   3.154   1.170   8.292
    6TRP    HD1 6376   3.182   1.123   8.386
    6TRP    NE1 6377   3.195   1.297   8.246
    6TRP    HE1 6378   3.247   1.359   8.306
    6TRP    CE2 6379   3.123   1.323   8.133
    6TRP    CZ2 6380   3.114   1.435   8.049
    6TRP    HZ2 6381   3.157   1.529   8.080
    6TRP    CH2 6382   3.042   1.434   7.931
    6TRP    HH2 6383   3.037   1.528   7.879
    6TRP    CZ3 6384   2.966   1.324   7.890
    6TRP    HZ3 6385   2.905   1.325   7.801
    6TRP    CE3 6386   2.971   1.210   7.977
    6TRP    HE3 6387   2.919   1.120   7.948
    6TRP    CD2 6388   3.052   1.204   8.098
    6TRP      C 6389   2.783   0.849   8.267
    6TRP      O 6390   2.754   0.808   8.153
    7TRP      N 6391   2.752   0.779   8.379
    7TRP      H 6392   2.782   0.823   8.465
    7TRP     CA 6393   2.699   0.643   8.378
    7TRP     HA 6394   2.760   0.586   8.308
    7TRP     CB 6395   2.705   0.587   8.521
    7TRP    HB2 6396   2.610   0.601   8.571
    7TRP    HB3 6397   2.708   0.479   8.510
    7TRP     CG 6398   2.820   0.614   8.616
    7TRP    CD1 6399   2.821   0.598   8.751
    7TRP    HD1 6400   2.735   0.561   8.806
    7TRP    NE1 6401   2.938   0.631   8.813
    7TRP    HE1 6402   2.942   0.629   8.914
    7TRP    CE2 6403   3.030   0.664   8.714
    7TRP    CZ2 6404   3.164   0.696   8.727
    7TRP    HZ2 6405   3.208   0.700   8.827
    7TRP    CH2 6406   3.238   0.732   8.614
    7TRP    HH2 6407   3.344   0.753   8.627
    7TRP    CZ3 6408   3.176   0.730   8.488
    7TRP    HZ3 6409   3.230   0.765   8.400
    7TRP    CE3 6410   3.042   0.679   8.478
    7TRP    HE3 6411   3.000   0.655   8.382
    7TRP    CD2 6412   2.961   0.652   8.592
    7TRP      C 6413   2.559   0.649   8.323
    7TRP      O 6414   2.488   0.744   8.355
    8PRO      N 6415   2.504   0.544   8.256
    8PRO     CD 6416   2.562   0.411   8.238
    8PRO    HD2 6417   2.592   0.367   8.334
    8PRO    HD3 6418   2.645   0.420   8.168
    8PRO     CG 6419   2.446   0.327   8.187
    8PRO    HG2 6420   2.402   0.271   8.270
    8PRO    HG3 6421   2.483   0.252   8.117
    8PRO     CB 6422   2.349   0.426   8.119
    8PRO    HB2 6423   2.246   0.394   8.135
    8PRO    HB3 6424   2.382   0.446   8.016
    8PRO     CA 6425   2.369   0.554   8.197
    8PRO     HA 6426   2.363   0.633   8.122
    8PRO      C 6427   2.257   0.571   8.298
    8PRO      O 6428   2.234   0.478   8.383
    9TRP      N 6429   2.190   0.688   8.288
    9TRP      H 6430   2.219   0.756   8.222
    9TRP     CA 6431   2.068   0.722   8.366
    9TRP     HA 6432   2.010   0.635   8.395
    9TRP     CB 6433   2.117   0.804   8.491
    9TRP    HB2 6434   2.182   0.879   8.449
    9TRP    HB3 6435   2.027   0.849   8.535
    9TRP     CG 6436   2.203   0.729   8.595
    9TRP    CD1 6437   2.330   0.750   8.640
    9TRP    HD1 6438   2.393   0.833   8.615
    9TRP    NE1 6439   2.371   0.656   8.733
    9TRP    HE1 6440   2.459   0.650   8.783
    9TRP    CE2 6441   2.279   0.552   8.742
    9TRP    CZ2 6442   2.267   0.434   8.817
    9TRP    HZ2 6443   2.347   0.404   8.882
    9TRP    CH2 6444   2.145   0.368   8.822
    9TRP    HH2 6445   2.142   0.284   8.889
    9TRP    CZ3 6446   2.038   0.414   8.743
    9TRP    HZ3 6447   1.948   0.355   8.749
    9TRP    CE3 6448   2.050   0.531   8.662
    9TRP    HE3 6449   1.962   0.569   8.612
    9TRP    CD2 6450   2.172   0.599   8.658
    9TRP      C 6451   1.975   0.810   8.280
    9TRP      O 6452   2.010   0.917   8.237
   10ARG      N 6453   1.852   0.763   8.261
   10ARG      H 6454   1.839   0.665   8.283
   10ARG     CA 6455   1.751   0.836   8.197
   10ARG     HA 6456   1.794   0.888   8.112
   10ARG     CB 6457   1.641   0.738   8.158
   10ARG    HB2 6458   1.604   0.686   8.247
   10ARG    HB3 6459   1.557   0.802   8.128
   10ARG     CG 6460   1.674   0.637   8.051
   10ARG    HG2 6461   1.703   0.700   7.966
   10ARG    HG3 6462   1.766   0.581   8.068
   10ARG     CD 6463   1.552   0.543   8.017
   10ARG    HD2 6464   1.573   0.486   7.927
   10ARG    HD3 6465   1.524   0.480   8.103
   10ARG     NE 6466   1.435   0.624   7.972
   10ARG     HE 6467   1.450   0.676   7.887
   10ARG     CZ 6468   1.323   0.643   8.045
   10ARG    NH1 6469   1.327   0.626   8.175
   10ARG   HH11 6470   1.411   0.621   8.232
   10ARG   HH12 6471   1.237   0.627   8.221
   10ARG    NH2 6472   1.210   0.678   7.988
   10ARG   HH21 6473   1.192   0.673   7.889
   10ARG   HH22 6474   1.133   0.696   8.050
   10ARG      C 6475   1.695   0.942   8.292
   10ARG      O 6476   1.681   0.919   8.413
   11ARG      N 6477   1.662   1.064   8.246
   11ARG      H 6478   1.679   1.077   8.147
   11ARG     CA 6479   1.601   1.178   8.316
   11ARG     HA 6480   1.529   1.128   8.382
   11ARG     CB 6481   1.705   1.259   8.407
   11ARG    HB2 6482   1.659   1.353   8.441
   11ARG    HB3 6483   1.735   1.199   8.493
   11ARG     CG 6484   1.829   1.305   8.327
   11ARG    HG2 6485   1.871   1.216   8.281
   11ARG    HG3 6486   1.799   1.368   8.244
   11ARG     CD 6487   1.945   1.368   8.419
   11ARG    HD2 6488   1.909   1.469   8.433
   11ARG    HD3 6489   1.954   1.309   8.510
   11ARG     NE 6490   2.071   1.376   8.341
   11ARG     HE 6491   2.081   1.431   8.257
   11ARG     CZ 6492   2.172   1.294   8.357
   11ARG    NH1 6493   2.184   1.187   8.433
   11ARG   HH11 6494   2.115   1.157   8.501
   11ARG   HH12 6495   2.259   1.123   8.414
   11ARG    NH2 6496   2.276   1.311   8.282
   11ARG   HH21 6497   2.266   1.374   8.204
   11ARG   HH22 6498   2.369   1.280   8.306
   11ARG      C 6499   1.522   1.262   8.218
   11ARG      O 6500   1.572   1.273   8.104
   12LYS      N 6501   1.419   1.335   8.261
   12LYS      H 6502   1.393   1.315   8.356
   12LYS     CA 6503   1.343   1.433   8.180
   12LYS     HA 6504   1.292   1.366   8.112
   12LYS     CB 6505   1.245   1.505   8.278
   12LYS    HB2 6506   1.206   1.438   8.354
   12LYS    HB3 6507   1.303   1.575   8.338
   12LYS     CG 6508   1.124   1.567   8.221
   12LYS    HG2 6509   1.149   1.634   8.138
   12LYS    HG3 6510   1.054   1.488   8.188
   12LYS     CD 6511   1.050   1.647   8.321
   12LYS    HD2 6512   1.012   1.583   8.400
   12LYS    HD3 6513   1.114   1.726   8.361
   12LYS     CE 6514   0.933   1.721   8.243
   12LYS    HE2 6515   0.974   1.776   8.159
   12LYS    HE3 6516   0.855   1.660   8.196
   12LYS     NZ 6517   0.864   1.821   8.329
   12LYS    HZ1 6518   0.797   1.783   8.395
   12LYS    HZ2 6519   0.925   1.884   8.378
   12LYS    HZ3 6520   0.804   1.872   8.265
   12LYS      C 6521   1.417   1.532   8.089
   12LYS      O 6522   1.516   1.587   8.130
   13NHE      N 6523   1.347   1.557   7.975
   13NHE    HN1 6524   1.263   1.506   7.949
   13NHE    HN2 6525   1.376   1.628   7.909
    1ILE      N 6526   9.038   2.127   2.789
    1ILE     H1 6527   9.125   2.156   2.748
    1ILE     H2 6528   8.954   2.143   2.734
    1ILE     H3 6529   9.052   2.028   2.784
    1ILE     CA 6530   9.012   2.153   2.932
    1ILE     HA 6531   8.935   2.085   2.964
    1ILE     CB 6532   9.144   2.133   3.017
    1ILE     HB 6533   9.202   2.043   2.997
    1ILE    CG2 6534   9.235   2.252   2.980
    1ILE   HG21 6535   9.225   2.334   3.051
    1ILE   HG22 6536   9.341   2.227   2.973
    1ILE   HG23 6537   9.208   2.293   2.883
    1ILE    CG1 6538   9.121   2.114   3.169
    1ILE   HG12 6539   9.036   2.047   3.188
    1ILE   HG13 6540   9.101   2.210   3.215
    1ILE    CD1 6541   9.241   2.052   3.243
    1ILE   HD11 6542   9.329   2.116   3.241
    1ILE   HD12 6543   9.219   2.053   3.349
    1ILE   HD13 6544   9.270   1.951   3.213
    1ILE      C 6545   8.942   2.286   2.952
    1ILE      O 6546   8.969   2.378   2.875
    2LEU      N 6547   8.854   2.295   3.052
    2LEU      H 6548   8.844   2.213   3.109
    2LEU     CA 6549   8.809   2.424   3.107
    2LEU     HA 6550   8.843   2.511   3.050
    2LEU     CB 6551   8.658   2.438   3.101
    2LEU    HB2 6552   8.619   2.390   3.191
    2LEU    HB3 6553   8.632   2.543   3.105
    2LEU     CG 6554   8.584   2.376   2.983
    2LEU     HG 6555   8.589   2.267   2.976
    2LEU    CD1 6556   8.428   2.393   3.007
    2LEU   HD11 6557   8.397   2.314   3.075
    2LEU   HD12 6558   8.408   2.491   3.051
    2LEU   HD13 6559   8.365   2.390   2.918
    2LEU    CD2 6560   8.616   2.442   2.854
    2LEU   HD21 6561   8.620   2.548   2.875
    2LEU   HD22 6562   8.721   2.418   2.831
    2LEU   HD23 6563   8.553   2.418   2.769
    2LEU      C 6564   8.856   2.448   3.252
    2LEU      O 6565   8.885   2.355   3.329
    3ARG      N 6566   8.879   2.574   3.283
    3ARG      H 6567   8.857   2.644   3.214
    3ARG     CA 6568   8.939   2.620   3.411
    3ARG     HA 6569   8.938   2.536   3.481
    3ARG     CB 6570   9.089   2.661   3.397
    3ARG    HB2 6571   9.129   2.666   3.498
    3ARG    HB3 6572   9.138   2.574   3.352
    3ARG     CG 6573   9.126   2.790   3.317
    3ARG    HG2 6574   9.085   2.790   3.217
    3ARG    HG3 6575   9.092   2.877   3.372
    3ARG     CD 6576   9.275   2.816   3.304
    3ARG    HD2 6577   9.288   2.924   3.290
    3ARG    HD3 6578   9.322   2.802   3.402
    3ARG     NE 6579   9.341   2.746   3.198
    3ARG     HE 6580   9.333   2.790   3.109
    3ARG     CZ 6581   9.423   2.641   3.212
    3ARG    NH1 6582   9.473   2.603   3.328
    3ARG   HH11 6583   9.428   2.627   3.415
    3ARG   HH12 6584   9.540   2.530   3.339
    3ARG    NH2 6585   9.462   2.580   3.097
    3ARG   HH21 6586   9.436   2.613   3.006
    3ARG   HH22 6587   9.531   2.506   3.106
    3ARG      C 6588   8.864   2.735   3.474
    3ARG      O 6589   8.788   2.806   3.409
    4TRP      N 6590   8.865   2.739   3.608
    4TRP      H 6591   8.931   2.681   3.658
    4TRP     CA 6592   8.781   2.832   3.688
    4TRP     HA 6593   8.747   2.915   3.625
    4TRP     CB 6594   8.654   2.749   3.734
    4TRP    HB2 6595   8.682   2.649   3.768
    4TRP    HB3 6596   8.594   2.806   3.806
    4TRP     CG 6597   8.557   2.719   3.625
    4TRP    CD1 6598   8.468   2.804   3.574
    4TRP    HD1 6599   8.453   2.908   3.603
    4TRP    NE1 6600   8.388   2.739   3.486
    4TRP    HE1 6601   8.317   2.788   3.431
    4TRP    CE2 6602   8.423   2.608   3.472
    4TRP    CZ2 6603   8.380   2.500   3.395
    4TRP    HZ2 6604   8.296   2.498   3.326
    4TRP    CH2 6605   8.451   2.380   3.401
    4TRP    HH2 6606   8.422   2.292   3.348
    4TRP    CZ3 6607   8.575   2.372   3.464
    4TRP    HZ3 6608   8.624   2.276   3.466
    4TRP    CE3 6609   8.625   2.478   3.545
    4TRP    HE3 6610   8.720   2.471   3.598
    4TRP    CD2 6611   8.547   2.598   3.553
    4TRP      C 6612   8.862   2.888   3.818
    4TRP      O 6613   8.967   2.833   3.851
    5PRO      N 6614   8.807   2.984   3.890
    5PRO     CD 6615   8.710   3.073   3.833
    5PRO    HD2 6616   8.609   3.046   3.862
    5PRO    HD3 6617   8.714   3.085   3.723
    5PRO     CG 6618   8.744   3.211   3.898
    5PRO    HG2 6619   8.658   3.279   3.900
    5PRO    HG3 6620   8.822   3.259   3.839
    5PRO     CB 6621   8.784   3.169   4.037
    5PRO    HB2 6622   8.696   3.141   4.097
    5PRO    HB3 6623   8.847   3.249   4.075
    5PRO     CA 6624   8.862   3.042   4.011
    5PRO     HA 6625   8.965   3.071   3.990
    5PRO      C 6626   8.863   2.949   4.134
    5PRO      O 6627   8.784   2.851   4.121
    6TRP      N 6628   8.918   2.975   4.251
    6TRP      H 6629   8.984   3.052   4.241
    6TRP     CA 6630   8.904   2.895   4.379
    6TRP     HA 6631   8.906   2.788   4.357
    6TRP     CB 6632   9.032   2.927   4.466
    6TRP    HB2 6633   9.041   3.035   4.474
    6TRP    HB3 6634   9.028   2.890   4.569
    6TRP     CG 6635   9.165   2.866   4.419
    6TRP    CD1 6636   9.258   2.929   4.342
    6TRP    HD1 6637   9.246   3.035   4.320
    6TRP    NE1 6638   9.365   2.846   4.301
    6TRP    HE1 6639   9.434   2.879   4.236
    6TRP    CE2 6640   9.332   2.719   4.336
    6TRP    CZ2 6641   9.393   2.594   4.315
    6TRP    HZ2 6642   9.474   2.586   4.245
    6TRP    CH2 6643   9.346   2.477   4.371
    6TRP    HH2 6644   9.398   2.387   4.342
    6TRP    CZ3 6645   9.229   2.472   4.449
    6TRP    HZ3 6646   9.189   2.380   4.487
    6TRP    CE3 6647   9.163   2.598   4.468
    6TRP    HE3 6648   9.075   2.602   4.531
    6TRP    CD2 6649   9.213   2.724   4.417
    6TRP      C 6650   8.780   2.919   4.455
    6TRP      O 6651   8.748   2.844   4.549
    7TRP      N 6652   8.704   3.024   4.417
    7TRP      H 6653   8.741   3.076   4.339
    7TRP     CA 6654   8.587   3.072   4.492
    7TRP     HA 6655   8.617   3.077   4.596
    7TRP     CB 6656   8.546   3.209   4.435
    7TRP    HB2 6657   8.467   3.197   4.362
    7TRP    HB3 6658   8.493   3.259   4.516
    7TRP     CG 6659   8.646   3.313   4.390
    7TRP    CD1 6660   8.621   3.421   4.311
    7TRP    HD1 6661   8.523   3.444   4.271
    7TRP    NE1 6662   8.729   3.500   4.285
    7TRP    HE1 6663   8.720   3.577   4.220
    7TRP    CE2 6664   8.837   3.450   4.358
    7TRP    CZ2 6665   8.965   3.501   4.371
    7TRP    HZ2 6666   8.992   3.590   4.316
    7TRP    CH2 6667   9.060   3.431   4.447
    7TRP    HH2 6668   9.158   3.475   4.458
    7TRP    CZ3 6669   9.022   3.313   4.512
    7TRP    HZ3 6670   9.096   3.253   4.565
    7TRP    CE3 6671   8.884   3.275   4.511
    7TRP    HE3 6672   8.847   3.198   4.577
    7TRP    CD2 6673   8.787   3.337   4.427
    7TRP      C 6674   8.479   2.968   4.479
    7TRP      O 6675   8.465   2.910   4.372
    8PRO      N 6676   8.386   2.951   4.577
    8PRO     CD 6677   8.367   3.032   4.697
    8PRO    HD2 6678   8.358   3.138   4.671
    8PRO    HD3 6679   8.451   3.012   4.764
    8PRO     CG 6680   8.232   2.989   4.750
    8PRO    HG2 6681   8.155   3.059   4.718
    8PRO    HG3 6682   8.232   2.993   4.858
    8PRO     CB 6683   8.210   2.844   4.698
    8PRO    HB2 6684   8.105   2.829   4.676
    8PRO    HB3 6685   8.261   2.773   4.764
    8PRO     CA 6686   8.285   2.843   4.566
    8PRO     HA 6687   8.331   2.744   4.562
    8PRO      C 6688   8.187   2.860   4.452
    8PRO      O 6689   8.109   2.960   4.450
    9TRP      N 6690   8.193   2.762   4.358
    9TRP      H 6691   8.261   2.691   4.367
    9TRP     CA 6692   8.099   2.748   4.244
    9TRP     HA 6693   8.000   2.790   4.265
    9TRP     CB 6694   8.167   2.818   4.122
    9TRP    HB2 6695   8.267   2.776   4.121
    9TRP    HB3 6696   8.111   2.787   4.033
    9TRP     CG 6697   8.188   2.971   4.129
    9TRP    CD1 6698   8.301   3.047   4.126
    9TRP    HD1 6699   8.401   3.012   4.107
    9TRP    NE1 6700   8.275   3.183   4.140
    9TRP    HE1 6701   8.340   3.261   4.138
    9TRP    CE2 6702   8.142   3.204   4.174
    9TRP    CZ2 6703   8.060   3.316   4.199
    9TRP    HZ2 6704   8.104   3.414   4.201
    9TRP    CH2 6705   7.923   3.302   4.200
    9TRP    HH2 6706   7.868   3.394   4.211
    9TRP    CZ3 6707   7.866   3.173   4.188
    9TRP    HZ3 6708   7.759   3.170   4.195
    9TRP    CE3 6709   7.947   3.058   4.168
    9TRP    HE3 6710   7.899   2.963   4.148
    9TRP    CD2 6711   8.087   3.072   4.164
    9TRP      C 6712   8.077   2.599   4.213
    9TRP      O 6713   8.168   2.526   4.181
   10ARG      N 6714   7.952   2.556   4.218
   10ARG      H 6715   7.886   2.618   4.265
   10ARG     CA 6716   7.912   2.427   4.180
   10ARG     HA 6717   7.986   2.356   4.216
   10ARG     CB 6718   7.773   2.403   4.236
   10ARG    HB2 6719   7.703   2.479   4.199
   10ARG    HB3 6720   7.739   2.311   4.187
   10ARG     CG 6721   7.761   2.392   4.386
   10ARG    HG2 6722   7.828   2.309   4.410
   10ARG    HG3 6723   7.806   2.473   4.442
   10ARG     CD 6724   7.612   2.364   4.433
   10ARG    HD2 6725   7.611   2.336   4.538
   10ARG    HD3 6726   7.546   2.448   4.408
   10ARG     NE 6727   7.562   2.237   4.371
   10ARG     HE 6728   7.612   2.154   4.398
   10ARG     CZ 6729   7.469   2.233   4.273
   10ARG    NH1 6730   7.447   2.338   4.198
   10ARG   HH11 6731   7.509   2.418   4.191
   10ARG   HH12 6732   7.366   2.332   4.138
   10ARG    NH2 6733   7.399   2.123   4.252
   10ARG   HH21 6734   7.393   2.046   4.315
   10ARG   HH22 6735   7.335   2.126   4.174
   10ARG      C 6736   7.909   2.417   4.027
   10ARG      O 6737   7.870   2.512   3.957
   11ARG      N 6738   7.951   2.305   3.966
   11ARG      H 6739   7.984   2.233   4.028
   11ARG     CA 6740   7.951   2.270   3.823
   11ARG     HA 6741   7.856   2.313   3.789
   11ARG     CB 6742   8.070   2.339   3.741
   11ARG    HB2 6743   8.076   2.294   3.641
   11ARG    HB3 6744   8.053   2.446   3.734
   11ARG     CG 6745   8.208   2.310   3.804
   11ARG    HG2 6746   8.202   2.341   3.907
   11ARG    HG3 6747   8.226   2.203   3.807
   11ARG     CD 6748   8.328   2.394   3.737
   11ARG    HD2 6749   8.349   2.336   3.649
   11ARG    HD3 6750   8.294   2.496   3.718
   11ARG     NE 6751   8.447   2.388   3.824
   11ARG     HE 6752   8.495   2.301   3.847
   11ARG     CZ 6753   8.487   2.486   3.901
   11ARG    NH1 6754   8.433   2.604   3.925
   11ARG   HH11 6755   8.350   2.638   3.878
   11ARG   HH12 6756   8.465   2.655   4.005
   11ARG    NH2 6757   8.594   2.467   3.973
   11ARG   HH21 6758   8.627   2.372   3.980
   11ARG   HH22 6759   8.652   2.541   4.007
   11ARG      C 6760   7.940   2.120   3.807
   11ARG      O 6761   8.002   2.052   3.891
   12LYS      N 6762   7.886   2.068   3.696
   12LYS      H 6763   7.842   2.137   3.637
   12LYS     CA 6764   7.884   1.924   3.660
   12LYS     HA 6765   7.814   1.888   3.734
   12LYS     CB 6766   7.827   1.916   3.516
   12LYS    HB2 6767   7.750   1.990   3.497
   12LYS    HB3 6768   7.905   1.948   3.447
   12LYS     CG 6769   7.764   1.789   3.473
   12LYS    HG2 6770   7.831   1.705   3.492
   12LYS    HG3 6771   7.669   1.776   3.526
   12LYS     CD 6772   7.732   1.788   3.329
   12LYS    HD2 6773   7.657   1.864   3.307
   12LYS    HD3 6774   7.822   1.804   3.270
   12LYS     CE 6775   7.681   1.642   3.294
   12LYS    HE2 6776   7.755   1.570   3.327
   12LYS    HE3 6777   7.590   1.606   3.342
   12LYS     NZ 6778   7.665   1.622   3.147
   12LYS    HZ1 6779   7.582   1.662   3.107
   12LYS    HZ2 6780   7.744   1.652   3.092
   12LYS    HZ3 6781   7.650   1.522   3.137
   12LYS      C 6782   8.009   1.838   3.679
   12LYS      O 6783   8.116   1.881   3.646
   13NHE      N 6784   7.977   1.711   3.716
   13NHE    HN1 6785   7.883   1.682   3.741
   13NHE    HN2 6786   8.046   1.638   3.722
    1ILE      N 6787   7.026   8.471   6.867
    1ILE     H1 6788   7.036   8.390   6.809
    1ILE     H2 6789   7.103   8.492   6.930
    1ILE     H3 6790   7.033   8.541   6.795
    1ILE     CA 6791   6.897   8.499   6.933
    1ILE     HA 6792   6.896   8.605   6.958
    1ILE     CB 6793   6.776   8.462   6.838
    1ILE     HB 6794   6.783   8.497   6.734
    1ILE    CG2 6795   6.775   8.308   6.833
    1ILE   HG21 6796   6.706   8.266   6.905
    1ILE   HG22 6797   6.750   8.267   6.734
    1ILE   HG23 6798   6.873   8.267   6.857
    1ILE    CG1 6799   6.641   8.527   6.876
    1ILE   HG12 6800   6.654   8.631   6.905
    1ILE   HG13 6801   6.597   8.473   6.960
    1ILE    CD1 6802   6.537   8.526   6.762
    1ILE   HD11 6803   6.507   8.426   6.733
    1ILE   HD12 6804   6.444   8.563   6.802
    1ILE   HD13 6805   6.563   8.583   6.672
    1ILE      C 6806   6.892   8.438   7.072
    1ILE      O 6807   6.949   8.332   7.090
    2LEU      N 6808   6.823   8.504   7.166
    2LEU      H 6809   6.778   8.588   7.136
    2LEU     CA 6810   6.777   8.441   7.290
    2LEU     HA 6811   6.815   8.338   7.304
    2LEU     CB 6812   6.829   8.512   7.413
    2LEU    HB2 6813   6.759   8.593   7.433
    2LEU    HB3 6814   6.826   8.444   7.498
    2LEU     CG 6815   6.968   8.574   7.408
    2LEU     HG 6816   6.980   8.656   7.336
    2LEU    CD1 6817   6.993   8.654   7.543
    2LEU   HD11 6818   6.943   8.750   7.533
    2LEU   HD12 6819   6.951   8.598   7.627
    2LEU   HD13 6820   7.098   8.670   7.570
    2LEU    CD2 6821   7.076   8.473   7.395
    2LEU   HD21 6822   7.048   8.391   7.461
    2LEU   HD22 6823   7.066   8.428   7.296
    2LEU   HD23 6824   7.177   8.507   7.412
    2LEU      C 6825   6.623   8.430   7.299
    2LEU      O 6826   6.547   8.506   7.237
    3ARG      N 6827   6.578   8.324   7.364
    3ARG      H 6828   6.646   8.264   7.409
    3ARG     CA 6829   6.435   8.285   7.373
    3ARG     HA 6830   6.375   8.369   7.337
    3ARG     CB 6831   6.398   8.165   7.280
    3ARG    HB2 6832   6.290   8.163   7.274
    3ARG    HB3 6833   6.431   8.196   7.180
    3ARG     CG 6834   6.454   8.023   7.313
    3ARG    HG2 6835   6.562   8.022   7.323
    3ARG    HG3 6836   6.407   7.986   7.404
    3ARG     CD 6837   6.418   7.916   7.211
    3ARG    HD2 6838   6.421   7.820   7.263
    3ARG    HD3 6839   6.312   7.924   7.187
    3ARG     NE 6840   6.502   7.909   7.096
    3ARG     HE 6841   6.586   7.857   7.110
    3ARG     CZ 6842   6.470   7.950   6.972
    3ARG    NH1 6843   6.347   7.980   6.936
    3ARG   HH11 6844   6.278   8.007   7.003
    3ARG   HH12 6845   6.321   8.003   6.842
    3ARG    NH2 6846   6.571   7.949   6.881
    3ARG   HH21 6847   6.663   7.915   6.902
    3ARG   HH22 6848   6.546   7.971   6.785
    3ARG      C 6849   6.392   8.251   7.514
    3ARG      O 6850   6.472   8.222   7.601
    4TRP      N 6851   6.264   8.279   7.543
    4TRP      H 6852   6.199   8.300   7.469
    4TRP     CA 6853   6.208   8.272   7.681
    4TRP     HA 6854   6.273   8.210   7.744
    4TRP     CB 6855   6.210   8.419   7.739
    4TRP    HB2 6856   6.176   8.491   7.664
    4TRP    HB3 6857   6.157   8.425   7.834
    4TRP     CG 6858   6.346   8.472   7.771
    4TRP    CD1 6859   6.416   8.441   7.881
    4TRP    HD1 6860   6.387   8.374   7.961
    4TRP    NE1 6861   6.529   8.517   7.884
    4TRP    HE1 6862   6.600   8.504   7.956
    4TRP    CE2 6863   6.540   8.598   7.775
    4TRP    CZ2 6864   6.633   8.689   7.726
    4TRP    HZ2 6865   6.725   8.721   7.775
    4TRP    CH2 6866   6.613   8.746   7.601
    4TRP    HH2 6867   6.679   8.819   7.558
    4TRP    CZ3 6868   6.515   8.698   7.514
    4TRP    HZ3 6869   6.505   8.747   7.418
    4TRP    CE3 6870   6.416   8.605   7.557
    4TRP    HE3 6871   6.336   8.571   7.490
    4TRP    CD2 6872   6.425   8.556   7.691
    4TRP      C 6873   6.056   8.214   7.681
    4TRP      O 6874   5.996   8.206   7.573
    5PRO      N 6875   5.999   8.185   7.796
    5PRO     CD 6876   6.077   8.155   7.913
    5PRO    HD2 6877   6.084   8.240   7.980
    5PRO    HD3 6878   6.180   8.117   7.893
    5PRO     CG 6879   5.996   8.043   7.984
    5PRO    HG2 6880   6.017   8.036   8.091
    5PRO    HG3 6881   6.024   7.946   7.940
    5PRO     CB 6882   5.854   8.086   7.957
    5PRO    HB2 6883   5.827   8.172   8.020
    5PRO    HB3 6884   5.793   7.997   7.965
    5PRO     CA 6885   5.863   8.137   7.814
    5PRO     HA 6886   5.849   8.052   7.748
    5PRO      C 6887   5.753   8.241   7.784
    5PRO      O 6888   5.796   8.359   7.782
    6TRP      N 6889   5.623   8.216   7.782
    6TRP      H 6890   5.606   8.116   7.776
    6TRP     CA 6891   5.511   8.319   7.772
    6TRP     HA 6892   5.538   8.397   7.701
    6TRP     CB 6893   5.386   8.243   7.711
    6TRP    HB2 6894   5.369   8.154   7.771
    6TRP    HB3 6895   5.292   8.299   7.713
    6TRP     CG 6896   5.393   8.206   7.562
    6TRP    CD1 6897   5.433   8.086   7.513
    6TRP    HD1 6898   5.451   8.003   7.581
    6TRP    NE1 6899   5.444   8.082   7.371
    6TRP    HE1 6900   5.481   8.001   7.325
    6TRP    CE2 6901   5.429   8.209   7.328
    6TRP    CZ2 6902   5.438   8.269   7.201
    6TRP    HZ2 6903   5.480   8.213   7.118
    6TRP    CH2 6904   5.407   8.402   7.177
    6TRP    HH2 6905   5.425   8.437   7.077
    6TRP    CZ3 6906   5.371   8.489   7.280
    6TRP    HZ3 6907   5.353   8.594   7.264
    6TRP    CE3 6908   5.365   8.431   7.412
    6TRP    HE3 6909   5.333   8.493   7.495
    6TRP    CD2 6910   5.389   8.291   7.439
    6TRP      C 6911   5.476   8.387   7.897
    6TRP      O 6912   5.402   8.488   7.896
    7TRP      N 6913   5.529   8.338   8.011
    7TRP      H 6914   5.588   8.256   7.998
    7TRP     CA 6915   5.492   8.382   8.146
    7TRP     HA 6916   5.384   8.387   8.148
    7TRP     CB 6917   5.549   8.284   8.248
    7TRP    HB2 6918   5.644   8.320   8.285
    7TRP    HB3 6919   5.486   8.293   8.336
    7TRP     CG 6920   5.553   8.134   8.225
    7TRP    CD1 6921   5.629   8.043   8.293
    7TRP    HD1 6922   5.697   8.070   8.373
    7TRP    NE1 6923   5.615   7.914   8.252
    7TRP    HE1 6924   5.674   7.842   8.291
    7TRP    CE2 6925   5.515   7.911   8.155
    7TRP    CZ2 6926   5.460   7.802   8.089
    7TRP    HZ2 6927   5.498   7.703   8.111
    7TRP    CH2 6928   5.363   7.823   7.990
    7TRP    HH2 6929   5.318   7.735   7.944
    7TRP    CZ3 6930   5.321   7.954   7.962
    7TRP    HZ3 6931   5.251   7.972   7.880
    7TRP    CE3 6932   5.367   8.061   8.045
    7TRP    HE3 6933   5.321   8.158   8.041
    7TRP    CD2 6934   5.474   8.045   8.139
    7TRP      C 6935   5.544   8.523   8.163
    7TRP      O 6936   5.654   8.551   8.116
    8PRO      N 6937   5.482   8.612   8.245
    8PRO     CD 6938   5.369   8.587   8.334
    8PRO    HD2 6939   5.389   8.502   8.399
    8PRO    HD3 6940   5.281   8.572   8.272
    8PRO     CG 6941   5.364   8.710   8.423
    8PRO    HG2 6942   5.414   8.689   8.517
    8PRO    HG3 6943   5.261   8.732   8.448
    8PRO     CB 6944   5.430   8.824   8.341
    8PRO    HB2 6945   5.485   8.890   8.408
    8PRO    HB3 6946   5.356   8.868   8.273
    8PRO     CA 6947   5.531   8.751   8.255
    8PRO     HA 6948   5.527   8.803   8.159
    8PRO      C 6949   5.669   8.765   8.316
    8PRO      O 6950   5.689   8.729   8.436
    9TRP      N 6951   5.762   8.817   8.233
    9TRP      H 6952   5.737   8.837   8.139
    9TRP     CA 6953   5.900   8.853   8.272
    9TRP     HA 6954   5.909   8.880   8.377
    9TRP     CB 6955   5.991   8.730   8.236
    9TRP    HB2 6956   5.963   8.707   8.134
    9TRP    HB3 6957   6.095   8.765   8.242
    9TRP     CG 6958   5.967   8.599   8.314
    9TRP    CD1 6959   5.929   8.474   8.273
    9TRP    HD1 6960   5.918   8.442   8.171
    9TRP    NE1 6961   5.915   8.385   8.378
    9TRP    HE1 6962   5.892   8.286   8.374
    9TRP    CE2 6963   5.924   8.450   8.500
    9TRP    CZ2 6964   5.918   8.413   8.635
    9TRP    HZ2 6965   5.896   8.311   8.662
    9TRP    CH2 6966   5.961   8.502   8.733
    9TRP    HH2 6967   5.962   8.462   8.833
    9TRP    CZ3 6968   5.999   8.632   8.696
    9TRP    HZ3 6969   6.026   8.697   8.778
    9TRP    CE3 6970   6.000   8.674   8.560
    9TRP    HE3 6971   6.040   8.771   8.535
    9TRP    CD2 6972   5.959   8.584   8.461
    9TRP      C 6973   5.947   8.976   8.192
    9TRP      O 6974   5.953   8.976   8.072
   10ARG      N 6975   5.984   9.082   8.263
   10ARG      H 6976   5.956   9.081   8.361
   10ARG     CA 6977   6.041   9.197   8.208
   10ARG     HA 6978   5.989   9.221   8.116
   10ARG     CB 6979   6.034   9.307   8.311
   10ARG    HB2 6980   6.085   9.277   8.403
   10ARG    HB3 6981   6.096   9.387   8.271
   10ARG     CG 6982   5.896   9.359   8.346
   10ARG    HG2 6983   5.857   9.393   8.249
   10ARG    HG3 6984   5.823   9.283   8.372
   10ARG     CD 6985   5.900   9.476   8.453
   10ARG    HD2 6986   5.802   9.523   8.460
   10ARG    HD3 6987   5.938   9.440   8.549
   10ARG     NE 6988   5.983   9.589   8.402
   10ARG     HE 6989   5.947   9.634   8.319
   10ARG     CZ 6990   6.105   9.621   8.450
   10ARG    NH1 6991   6.175   9.532   8.515
   10ARG   HH11 6992   6.158   9.432   8.514
   10ARG   HH12 6993   6.258   9.568   8.560
   10ARG    NH2 6994   6.154   9.743   8.433
   10ARG   HH21 6995   6.101   9.822   8.404
   10ARG   HH22 6996   6.248   9.757   8.467
   10ARG      C 6997   6.188   9.170   8.172
   10ARG      O 6998   6.260   9.100   8.244
   11ARG      N 6999   6.240   9.221   8.059
   11ARG      H 7000   6.176   9.275   8.003
   11ARG     CA 7001   6.378   9.214   8.007
   11ARG     HA 7002   6.437   9.225   8.099
   11ARG     CB 7003   6.414   9.073   7.940
   11ARG    HB2 7004   6.510   9.081   7.887
   11ARG    HB3 7005   6.419   8.995   8.016
   11ARG     CG 7006   6.313   9.034   7.830
   11ARG    HG2 7007   6.214   9.038   7.875
   11ARG    HG3 7008   6.311   9.110   7.752
   11ARG     CD 7009   6.333   8.884   7.775
   11ARG    HD2 7010   6.414   8.898   7.705
   11ARG    HD3 7011   6.354   8.818   7.859
   11ARG     NE 7012   6.213   8.843   7.698
   11ARG     HE 7013   6.182   8.891   7.613
   11ARG     CZ 7014   6.122   8.761   7.743
   11ARG    NH1 7015   6.108   8.705   7.861
   11ARG   HH11 7016   6.176   8.712   7.935
   11ARG   HH12 7017   6.019   8.665   7.885
   11ARG    NH2 7018   6.021   8.734   7.664
   11ARG   HH21 7019   6.011   8.792   7.583
   11ARG   HH22 7020   5.965   8.651   7.672
   11ARG      C 7021   6.406   9.335   7.921
   11ARG      O 7022   6.311   9.375   7.851
   12LYS      N 7023   6.531   9.380   7.908
   12LYS      H 7024   6.596   9.336   7.970
   12LYS     CA 7025   6.576   9.487   7.815
   12LYS     HA 7026   6.530   9.573   7.863
   12LYS     CB 7027   6.731   9.490   7.823
   12LYS    HB2 7028   6.768   9.470   7.923
   12LYS    HB3 7029   6.770   9.405   7.768
   12LYS     CG 7030   6.799   9.616   7.785
   12LYS    HG2 7031   6.766   9.650   7.687
   12LYS    HG3 7032   6.780   9.692   7.862
   12LYS     CD 7033   6.946   9.600   7.779
   12LYS    HD2 7034   6.986   9.576   7.878
   12LYS    HD3 7035   6.973   9.523   7.707
   12LYS     CE 7036   7.005   9.736   7.722
   12LYS    HE2 7037   6.955   9.760   7.629
   12LYS    HE3 7038   6.991   9.827   7.781
   12LYS     NZ 7039   7.150   9.725   7.692
   12LYS    HZ1 7040   7.211   9.731   7.771
   12LYS    HZ2 7041   7.176   9.645   7.637
   12LYS    HZ3 7042   7.171   9.811   7.641
   12LYS      C 7043   6.525   9.490   7.671
   12LYS      O 7044   6.519   9.388   7.608
   13NHE      N 7045   6.508   9.617   7.626
   13NHE    HN1 7046   6.516   9.699   7.686
   13NHE    HN2 7047   6.485   9.638   7.530
    1ILE      N 7048   7.654   7.599   4.007
    1ILE     H1 7049   7.700   7.666   4.066
    1ILE     H2 7050   7.560   7.622   3.975
    1ILE     H3 7051   7.712   7.610   3.925
    1ILE     CA 7052   7.664   7.455   4.038
    1ILE     HA 7053   7.642   7.401   3.947
    1ILE     CB 7054   7.809   7.420   4.093
    1ILE     HB 7055   7.893   7.459   4.036
    1ILE    CG2 7056   7.815   7.482   4.233
    1ILE   HG21 7057   7.790   7.410   4.310
    1ILE   HG22 7058   7.913   7.525   4.258
    1ILE   HG23 7059   7.745   7.564   4.244
    1ILE    CG1 7060   7.844   7.268   4.086
    1ILE   HG12 7061   7.811   7.224   3.992
    1ILE   HG13 7062   7.796   7.217   4.168
    1ILE    CD1 7063   7.996   7.241   4.097
    1ILE   HD11 7064   8.037   7.270   4.193
    1ILE   HD12 7065   8.009   7.133   4.103
    1ILE   HD13 7066   8.058   7.281   4.017
    1ILE      C 7067   7.549   7.410   4.127
    1ILE      O 7068   7.505   7.489   4.208
    2LEU      N 7069   7.503   7.286   4.109
    2LEU      H 7070   7.550   7.230   4.040
    2LEU     CA 7071   7.421   7.216   4.209
    2LEU     HA 7072   7.391   7.280   4.293
    2LEU     CB 7073   7.288   7.172   4.153
    2LEU    HB2 7074   7.305   7.075   4.106
    2LEU    HB3 7075   7.217   7.156   4.234
    2LEU     CG 7076   7.219   7.259   4.048
    2LEU     HG 7077   7.274   7.270   3.954
    2LEU    CD1 7078   7.090   7.183   3.996
    2LEU   HD11 7079   7.123   7.111   3.921
    2LEU   HD12 7080   7.040   7.134   4.079
    2LEU   HD13 7081   7.012   7.247   3.952
    2LEU    CD2 7082   7.176   7.390   4.102
    2LEU   HD21 7083   7.135   7.370   4.201
    2LEU   HD22 7084   7.267   7.447   4.125
    2LEU   HD23 7085   7.109   7.449   4.041
    2LEU      C 7086   7.493   7.095   4.272
    2LEU      O 7087   7.584   7.034   4.214
    3ARG      N 7088   7.462   7.071   4.398
    3ARG      H 7089   7.389   7.127   4.440
    3ARG     CA 7090   7.528   6.969   4.484
    3ARG     HA 7091   7.589   6.905   4.419
    3ARG     CB 7092   7.628   7.032   4.586
    3ARG    HB2 7093   7.690   6.949   4.623
    3ARG    HB3 7094   7.696   7.092   4.525
    3ARG     CG 7095   7.574   7.116   4.705
    3ARG    HG2 7096   7.509   7.197   4.673
    3ARG    HG3 7097   7.520   7.051   4.774
    3ARG     CD 7098   7.681   7.178   4.793
    3ARG    HD2 7099   7.636   7.194   4.892
    3ARG    HD3 7100   7.756   7.103   4.816
    3ARG     NE 7101   7.736   7.301   4.747
    3ARG     HE 7102   7.682   7.382   4.770
    3ARG     CZ 7103   7.858   7.318   4.693
    3ARG    NH1 7104   7.952   7.226   4.699
    3ARG   HH11 7105   7.930   7.129   4.712
    3ARG   HH12 7106   8.045   7.240   4.667
    3ARG    NH2 7107   7.884   7.441   4.641
    3ARG   HH21 7108   7.819   7.517   4.646
    3ARG   HH22 7109   7.979   7.457   4.609
    3ARG      C 7110   7.430   6.882   4.560
    3ARG      O 7111   7.314   6.917   4.578
    4TRP      N 7112   7.470   6.757   4.583
    4TRP      H 7113   7.567   6.732   4.569
    4TRP     CA 7114   7.381   6.651   4.638
    4TRP     HA 7115   7.295   6.697   4.687
    4TRP     CB 7116   7.329   6.567   4.514
    4TRP    HB2 7117   7.410   6.547   4.444
    4TRP    HB3 7118   7.275   6.478   4.547
    4TRP     CG 7119   7.230   6.638   4.428
    4TRP    CD1 7120   7.100   6.654   4.456
    4TRP    HD1 7121   7.048   6.620   4.545
    4TRP    NE1 7122   7.039   6.712   4.349
    4TRP    HE1 7123   6.941   6.739   4.353
    4TRP    CE2 7124   7.126   6.740   4.248
    4TRP    CZ2 7125   7.118   6.800   4.122
    4TRP    HZ2 7126   7.028   6.837   4.074
    4TRP    CH2 7127   7.235   6.820   4.050
    4TRP    HH2 7128   7.236   6.863   3.952
    4TRP    CZ3 7129   7.360   6.803   4.108
    4TRP    HZ3 7130   7.447   6.820   4.046
    4TRP    CE3 7131   7.376   6.741   4.236
    4TRP    HE3 7132   7.475   6.723   4.280
    4TRP    CD2 7133   7.257   6.705   4.307
    4TRP      C 7134   7.461   6.554   4.742
    4TRP      O 7135   7.584   6.560   4.746
    5PRO      N 7136   7.392   6.466   4.812
    5PRO     CD 7137   7.252   6.486   4.838
    5PRO    HD2 7138   7.190   6.425   4.773
    5PRO    HD3 7139   7.216   6.590   4.835
    5PRO     CG 7140   7.234   6.433   4.984
    5PRO    HG2 7141   7.132   6.401   5.006
    5PRO    HG3 7142   7.259   6.514   5.054
    5PRO     CB 7143   7.330   6.316   4.985
    5PRO    HB2 7144   7.289   6.230   4.929
    5PRO    HB3 7145   7.356   6.300   5.089
    5PRO     CA 7146   7.447   6.369   4.905
    5PRO     HA 7147   7.512   6.423   4.974
    5PRO      C 7148   7.529   6.256   4.840
    5PRO      O 7149   7.506   6.244   4.717
    6TRP      N 7150   7.598   6.164   4.906
    6TRP      H 7151   7.613   6.193   5.001
    6TRP     CA 7152   7.662   6.040   4.846
    6TRP     HA 7153   7.708   6.063   4.750
    6TRP     CB 7154   7.780   5.999   4.944
    6TRP    HB2 7155   7.739   5.993   5.045
    6TRP    HB3 7156   7.826   5.902   4.925
    6TRP     CG 7157   7.904   6.090   4.944
    6TRP    CD1 7158   7.928   6.192   5.031
    6TRP    HD1 7159   7.861   6.207   5.116
    6TRP    NE1 7160   8.044   6.268   5.001
    6TRP    HE1 7161   8.065   6.351   5.052
    6TRP    CE2 7162   8.087   6.226   4.879
    6TRP    CZ2 7163   8.190   6.270   4.793
    6TRP    HZ2 7164   8.240   6.363   4.813
    6TRP    CH2 7165   8.224   6.203   4.677
    6TRP    HH2 7166   8.300   6.250   4.617
    6TRP    CZ3 7167   8.153   6.092   4.631
    6TRP    HZ3 7168   8.176   6.044   4.537
    6TRP    CE3 7169   8.045   6.048   4.714
    6TRP    HE3 7170   7.989   5.960   4.687
    6TRP    CD2 7171   8.011   6.111   4.841
    6TRP      C 7172   7.572   5.926   4.822
    6TRP      O 7173   7.610   5.828   4.755
    7TRP      N 7174   7.448   5.934   4.875
    7TRP      H 7175   7.430   6.019   4.927
    7TRP     CA 7176   7.351   5.824   4.875
    7TRP     HA 7177   7.405   5.736   4.907
    7TRP     CB 7178   7.235   5.860   4.968
    7TRP    HB2 7179   7.154   5.904   4.912
    7TRP    HB3 7180   7.192   5.765   5.000
    7TRP     CG 7181   7.255   5.934   5.100
    7TRP    CD1 7182   7.159   5.998   5.172
    7TRP    HD1 7183   7.055   6.003   5.142
    7TRP    NE1 7184   7.203   6.057   5.287
    7TRP    HE1 7185   7.140   6.114   5.341
    7TRP    CE2 7186   7.338   6.025   5.302
    7TRP    CZ2 7187   7.424   6.055   5.406
    7TRP    HZ2 7188   7.387   6.114   5.489
    7TRP    CH2 7189   7.558   6.017   5.398
    7TRP    HH2 7190   7.622   6.038   5.483
    7TRP    CZ3 7191   7.602   5.945   5.286
    7TRP    HZ3 7192   7.708   5.921   5.275
    7TRP    CE3 7193   7.506   5.901   5.190
    7TRP    HE3 7194   7.532   5.828   5.116
    7TRP    CD2 7195   7.371   5.946   5.189
    7TRP      C 7196   7.307   5.802   4.733
    7TRP      O 7197   7.291   5.900   4.660
    8PRO      N 7198   7.268   5.679   4.689
    8PRO     CD 7199   7.250   5.558   4.768
    8PRO    HD2 7200   7.185   5.577   4.854
    8PRO    HD3 7201   7.349   5.523   4.798
    8PRO     CG 7202   7.175   5.463   4.677
    8PRO    HG2 7203   7.069   5.467   4.700
    8PRO    HG3 7204   7.206   5.361   4.696
    8PRO     CB 7205   7.210   5.508   4.532
    8PRO    HB2 7206   7.123   5.494   4.468
    8PRO    HB3 7207   7.306   5.464   4.502
    8PRO     CA 7208   7.233   5.657   4.547
    8PRO     HA 7209   7.315   5.679   4.480
    8PRO      C 7210   7.109   5.732   4.501
    8PRO      O 7211   6.996   5.706   4.554
    9TRP      N 7212   7.131   5.824   4.404
    9TRP      H 7213   7.224   5.841   4.374
    9TRP     CA 7214   7.026   5.901   4.334
    9TRP     HA 7215   6.931   5.848   4.329
    9TRP     CB 7216   7.012   6.038   4.409
    9TRP    HB2 7217   7.114   6.073   4.417
    9TRP    HB3 7218   6.953   6.103   4.344
    9TRP     CG 7219   6.959   6.034   4.554
    9TRP    CD1 7220   7.016   6.073   4.672
    9TRP    HD1 7221   7.108   6.125   4.684
    9TRP    NE1 7222   6.934   6.048   4.782
    9TRP    HE1 7223   6.950   6.071   4.879
    9TRP    CE2 7224   6.824   5.972   4.745
    9TRP    CZ2 7225   6.711   5.919   4.810
    9TRP    HZ2 7226   6.701   5.929   4.916
    9TRP    CH2 7227   6.605   5.872   4.735
    9TRP    HH2 7228   6.519   5.841   4.793
    9TRP    CZ3 7229   6.615   5.867   4.595
    9TRP    HZ3 7230   6.530   5.825   4.544
    9TRP    CE3 7231   6.730   5.915   4.527
    9TRP    HE3 7232   6.730   5.920   4.419
    9TRP    CD2 7233   6.838   5.965   4.602
    9TRP      C 7234   7.068   5.926   4.188
    9TRP      O 7235   7.169   5.988   4.160
   10ARG      N 7236   6.987   5.880   4.094
   10ARG      H 7237   6.917   5.813   4.125
   10ARG     CA 7238   7.004   5.906   3.958
   10ARG     HA 7239   7.109   5.898   3.933
   10ARG     CB 7240   6.917   5.807   3.881
   10ARG    HB2 7241   6.812   5.817   3.911
   10ARG    HB3 7242   6.918   5.844   3.778
   10ARG     CG 7243   6.958   5.662   3.887
   10ARG    HG2 7244   7.060   5.663   3.848
   10ARG    HG3 7245   6.974   5.623   3.987
   10ARG     CD 7246   6.863   5.568   3.801
   10ARG    HD2 7247   6.907   5.469   3.792
   10ARG    HD3 7248   6.761   5.568   3.842
   10ARG     NE 7249   6.862   5.613   3.658
   10ARG     HE 7250   6.951   5.606   3.612
   10ARG     CZ 7251   6.758   5.674   3.599
   10ARG    NH1 7252   6.667   5.735   3.671
   10ARG   HH11 7253   6.678   5.761   3.769
   10ARG   HH12 7254   6.585   5.764   3.621
   10ARG    NH2 7255   6.745   5.673   3.468
   10ARG   HH21 7256   6.796   5.613   3.406
   10ARG   HH22 7257   6.668   5.725   3.430
   10ARG      C 7258   6.959   6.049   3.926
   10ARG      O 7259   6.861   6.100   3.981
   11ARG      N 7260   7.028   6.123   3.837
   11ARG      H 7261   7.109   6.077   3.797
   11ARG     CA 7262   7.002   6.259   3.786
   11ARG     HA 7263   6.892   6.258   3.777
   11ARG     CB 7264   7.043   6.374   3.889
   11ARG    HB2 7265   7.038   6.471   3.839
   11ARG    HB3 7266   6.976   6.373   3.976
   11ARG     CG 7267   7.190   6.362   3.936
   11ARG    HG2 7268   7.202   6.261   3.974
   11ARG    HG3 7269   7.257   6.367   3.849
   11ARG     CD 7270   7.228   6.463   4.054
   11ARG    HD2 7271   7.246   6.554   4.000
   11ARG    HD3 7272   7.146   6.467   4.126
   11ARG     NE 7273   7.357   6.420   4.115
   11ARG     HE 7274   7.445   6.417   4.064
   11ARG     CZ 7275   7.366   6.360   4.230
   11ARG    NH1 7276   7.273   6.316   4.313
   11ARG   HH11 7277   7.174   6.332   4.299
   11ARG   HH12 7278   7.299   6.250   4.384
   11ARG    NH2 7279   7.486   6.328   4.272
   11ARG   HH21 7280   7.560   6.335   4.205
   11ARG   HH22 7281   7.509   6.313   4.369
   11ARG      C 7282   7.059   6.273   3.647
   11ARG      O 7283   7.168   6.216   3.627
   12LYS      N 7284   7.006   6.360   3.562
   12LYS      H 7285   6.919   6.400   3.594
   12LYS     CA 7286   7.061   6.396   3.428
   12LYS     HA 7287   7.042   6.304   3.376
   12LYS     CB 7288   6.974   6.514   3.376
   12LYS    HB2 7289   6.869   6.504   3.403
   12LYS    HB3 7290   7.002   6.604   3.429
   12LYS     CG 7291   6.969   6.536   3.229
   12LYS    HG2 7292   7.070   6.542   3.188
   12LYS    HG3 7293   6.912   6.455   3.182
   12LYS     CD 7294   6.899   6.661   3.194
   12LYS    HD2 7295   6.794   6.655   3.223
   12LYS    HD3 7296   6.948   6.747   3.240
   12LYS     CE 7297   6.915   6.680   3.037
   12LYS    HE2 7298   7.021   6.675   3.011
   12LYS    HE3 7299   6.872   6.605   2.970
   12LYS     NZ 7300   6.867   6.813   2.992
   12LYS    HZ1 7301   6.767   6.822   2.983
   12LYS    HZ2 7302   6.901   6.891   3.045
   12LYS    HZ3 7303   6.899   6.820   2.895
   12LYS      C 7304   7.211   6.422   3.411
   12LYS      O 7305   7.269   6.488   3.494
   13NHE      N 7306   7.256   6.380   3.291
   13NHE    HN1 7307   7.199   6.326   3.226
   13NHE    HN2 7308   7.349   6.399   3.259
    1ILE      N 7309   1.935   0.224   6.590
    1ILE     H1 7310   1.845   0.180   6.594
    1ILE     H2 7311   1.994   0.214   6.673
    1ILE     H3 7312   1.978   0.163   6.522
    1ILE     CA 7313   1.950   0.359   6.533
    1ILE     HA 7314   2.053   0.371   6.505
    1ILE     CB 7315   1.855   0.376   6.407
    1ILE     HB 7316   1.856   0.295   6.333
    1ILE    CG2 7317   1.712   0.382   6.464
    1ILE   HG21 7318   1.679   0.484   6.478
    1ILE   HG22 7319   1.638   0.330   6.402
    1ILE   HG23 7320   1.707   0.335   6.561
    1ILE    CG1 7321   1.893   0.493   6.313
    1ILE   HG12 7322   2.001   0.499   6.298
    1ILE   HG13 7323   1.859   0.587   6.356
    1ILE    CD1 7324   1.831   0.482   6.172
    1ILE   HD11 7325   1.722   0.488   6.174
    1ILE   HD12 7326   1.854   0.574   6.119
    1ILE   HD13 7327   1.861   0.397   6.112
    1ILE      C 7328   1.935   0.466   6.639
    1ILE      O 7329   1.859   0.446   6.732
    2LEU      N 7330   2.009   0.577   6.625
    2LEU      H 7331   2.065   0.582   6.542
    2LEU     CA 7332   1.978   0.702   6.695
    2LEU     HA 7333   1.898   0.692   6.770
    2LEU     CB 7334   2.095   0.750   6.778
    2LEU    HB2 7335   2.159   0.809   6.711
    2LEU    HB3 7336   2.059   0.818   6.856
    2LEU     CG 7337   2.186   0.647   6.845
    2LEU     HG 7338   2.240   0.582   6.776
    2LEU    CD1 7339   2.307   0.723   6.913
    2LEU   HD11 7340   2.380   0.744   6.835
    2LEU   HD12 7341   2.271   0.815   6.959
    2LEU   HD13 7342   2.357   0.669   6.995
    2LEU    CD2 7343   2.115   0.569   6.950
    2LEU   HD21 7344   2.055   0.641   7.005
    2LEU   HD22 7345   2.041   0.507   6.900
    2LEU   HD23 7346   2.177   0.509   7.016
    2LEU      C 7347   1.933   0.816   6.601
    2LEU      O 7348   1.964   0.819   6.480
    3ARG      N 7349   1.845   0.900   6.652
    3ARG      H 7350   1.821   0.889   6.750
    3ARG     CA 7351   1.776   1.008   6.577
    3ARG     HA 7352   1.827   1.019   6.480
    3ARG     CB 7353   1.628   0.973   6.542
    3ARG    HB2 7354   1.598   1.044   6.465
    3ARG    HB3 7355   1.634   0.877   6.490
    3ARG     CG 7356   1.522   0.966   6.656
    3ARG    HG2 7357   1.551   0.899   6.736
    3ARG    HG3 7358   1.506   1.067   6.695
    3ARG     CD 7359   1.383   0.924   6.611
    3ARG    HD2 7360   1.312   0.966   6.684
    3ARG    HD3 7361   1.356   0.980   6.522
    3ARG     NE 7362   1.362   0.784   6.600
    3ARG     HE 7363   1.339   0.739   6.686
    3ARG     CZ 7364   1.352   0.714   6.485
    3ARG    NH1 7365   1.338   0.771   6.367
    3ARG   HH11 7366   1.366   0.866   6.351
    3ARG   HH12 7367   1.323   0.721   6.283
    3ARG    NH2 7368   1.348   0.579   6.498
    3ARG   HH21 7369   1.346   0.532   6.587
    3ARG   HH22 7370   1.331   0.526   6.413
    3ARG      C 7371   1.779   1.141   6.648
    3ARG      O 7372   1.800   1.150   6.768
    4TRP      N 7373   1.782   1.248   6.568
    4TRP      H 7374   1.762   1.238   6.470
    4TRP     CA 7375   1.805   1.387   6.618
    4TRP     HA 7376   1.784   1.391   6.726
    4TRP     CB 7377   1.958   1.419   6.597
    4TRP    HB2 7378   1.992   1.384   6.498
    4TRP    HB3 7379   1.981   1.523   6.617
    4TRP     CG 7380   2.050   1.345   6.688
    4TRP    CD1 7381   2.075   1.377   6.816
    4TRP    HD1 7382   2.031   1.459   6.872
    4TRP    NE1 7383   2.173   1.296   6.864
    4TRP    HE1 7384   2.202   1.300   6.962
    4TRP    CE2 7385   2.215   1.206   6.772
    4TRP    CZ2 7386   2.307   1.101   6.769
    4TRP    HZ2 7387   2.374   1.071   6.849
    4TRP    CH2 7388   2.315   1.021   6.655
    4TRP    HH2 7389   2.385   0.941   6.644
    4TRP    CZ3 7390   2.219   1.029   6.554
    4TRP    HZ3 7391   2.231   0.965   6.468
    4TRP    CE3 7392   2.123   1.134   6.550
    4TRP    HE3 7393   2.050   1.143   6.469
    4TRP    CD2 7394   2.122   1.228   6.659
    4TRP      C 7395   1.713   1.495   6.538
    4TRP      O 7396   1.658   1.460   6.434
    5PRO      N 7397   1.710   1.620   6.582
    5PRO     CD 7398   1.738   1.651   6.719
    5PRO    HD2 7399   1.839   1.690   6.731
    5PRO    HD3 7400   1.723   1.569   6.792
    5PRO     CG 7401   1.637   1.765   6.753
    5PRO    HG2 7402   1.670   1.828   6.836
    5PRO    HG3 7403   1.542   1.720   6.783
    5PRO     CB 7404   1.634   1.841   6.623
    5PRO    HB2 7405   1.725   1.901   6.609
    5PRO    HB3 7406   1.539   1.894   6.622
    5PRO     CA 7407   1.637   1.730   6.520
    5PRO     HA 7408   1.535   1.697   6.504
    5PRO      C 7409   1.695   1.778   6.385
    5PRO      O 7410   1.814   1.739   6.367
    6TRP      N 7411   1.640   1.868   6.306
    6TRP      H 7412   1.542   1.880   6.331
    6TRP     CA 7413   1.703   1.931   6.183
    6TRP     HA 7414   1.759   1.857   6.127
    6TRP     CB 7415   1.583   1.979   6.091
    6TRP    HB2 7416   1.516   2.039   6.151
    6TRP    HB3 7417   1.611   2.042   6.006
    6TRP     CG 7418   1.504   1.869   6.018
    6TRP    CD1 7419   1.388   1.813   6.062
    6TRP    HD1 7420   1.338   1.854   6.150
    6TRP    NE1 7421   1.342   1.704   5.984
    6TRP    HE1 7422   1.263   1.649   6.013
    6TRP    CE2 7423   1.442   1.675   5.896
    6TRP    CZ2 7424   1.459   1.573   5.800
    6TRP    HZ2 7425   1.392   1.489   5.799
    6TRP    CH2 7426   1.566   1.570   5.712
    6TRP    HH2 7427   1.571   1.484   5.648
    6TRP    CZ3 7428   1.669   1.664   5.716
    6TRP    HZ3 7429   1.756   1.659   5.652
    6TRP    CE3 7430   1.656   1.766   5.816
    6TRP    HE3 7431   1.730   1.845   5.822
    6TRP    CD2 7432   1.542   1.777   5.906
    6TRP      C 7433   1.796   2.041   6.210
    6TRP      O 7434   1.869   2.087   6.119
    7TRP      N 7435   1.799   2.090   6.336
    7TRP      H 7436   1.735   2.045   6.399
    7TRP     CA 7437   1.874   2.210   6.376
    7TRP     HA 7438   1.851   2.286   6.302
    7TRP     CB 7439   1.830   2.250   6.517
    7TRP    HB2 7440   1.898   2.209   6.591
    7TRP    HB3 7441   1.850   2.357   6.525
    7TRP     CG 7442   1.686   2.239   6.566
    7TRP    CD1 7443   1.643   2.241   6.695
    7TRP    HD1 7444   1.710   2.251   6.779
    7TRP    NE1 7445   1.509   2.229   6.711
    7TRP    HE1 7446   1.470   2.221   6.804
    7TRP    CE2 7447   1.450   2.229   6.585
    7TRP    CZ2 7448   1.316   2.226   6.550
    7TRP    HZ2 7449   1.242   2.222   6.629
    7TRP    CH2 7450   1.280   2.221   6.415
    7TRP    HH2 7451   1.174   2.223   6.390
    7TRP    CZ3 7452   1.380   2.222   6.317
    7TRP    HZ3 7453   1.354   2.210   6.212
    7TRP    CE3 7454   1.516   2.243   6.357
    7TRP    HE3 7455   1.592   2.266   6.285
    7TRP    CD2 7456   1.558   2.238   6.493
    7TRP      C 7457   2.020   2.178   6.367
    7TRP      O 7458   2.059   2.066   6.401
    8PRO      N 7459   2.112   2.275   6.339
    8PRO     CD 7460   2.090   2.418   6.328
    8PRO    HD2 7461   2.037   2.457   6.416
    8PRO    HD3 7462   2.034   2.435   6.236
    8PRO     CG 7463   2.229   2.479   6.331
    8PRO    HG2 7464   2.251   2.514   6.431
    8PRO    HG3 7465   2.232   2.567   6.268
    8PRO     CB 7466   2.324   2.368   6.279
    8PRO    HB2 7467   2.419   2.374   6.332
    8PRO    HB3 7468   2.324   2.367   6.169
    8PRO     CA 7469   2.255   2.240   6.324
    8PRO     HA 7470   2.272   2.171   6.242
    8PRO      C 7471   2.322   2.188   6.450
    8PRO      O 7472   2.331   2.263   6.552
    9TRP      N 7473   2.366   2.060   6.440
    9TRP      H 7474   2.349   2.008   6.358
    9TRP     CA 7475   2.446   1.991   6.544
    9TRP     HA 7476   2.506   2.059   6.605
    9TRP     CB 7477   2.345   1.910   6.632
    9TRP    HB2 7478   2.285   1.857   6.559
    9TRP    HB3 7479   2.404   1.840   6.693
    9TRP     CG 7480   2.243   1.990   6.716
    9TRP    CD1 7481   2.107   1.994   6.715
    9TRP    HD1 7482   2.042   1.930   6.657
    9TRP    NE1 7483   2.054   2.085   6.806
    9TRP    HE1 7484   1.957   2.104   6.827
    9TRP    CE2 7485   2.155   2.163   6.861
    9TRP    CZ2 7486   2.162   2.266   6.956
    9TRP    HZ2 7487   2.072   2.307   6.998
    9TRP    CH2 7488   2.284   2.302   7.010
    9TRP    HH2 7489   2.280   2.375   7.088
    9TRP    CZ3 7490   2.402   2.241   6.961
    9TRP    HZ3 7491   2.494   2.277   7.004
    9TRP    CE3 7492   2.398   2.140   6.861
    9TRP    HE3 7493   2.489   2.089   6.834
    9TRP    CD2 7494   2.273   2.102   6.808
    9TRP      C 7495   2.546   1.894   6.478
    9TRP      O 7496   2.509   1.803   6.407
   10ARG      N 7497   2.674   1.913   6.505
   10ARG      H 7498   2.697   2.003   6.547
   10ARG     CA 7499   2.776   1.827   6.464
   10ARG     HA 7500   2.756   1.795   6.362
   10ARG     CB 7501   2.908   1.900   6.479
   10ARG    HB2 7502   2.922   1.932   6.582
   10ARG    HB3 7503   2.984   1.823   6.465
   10ARG     CG 7504   2.932   2.018   6.387
   10ARG    HG2 7505   2.923   1.973   6.287
   10ARG    HG3 7506   2.852   2.091   6.384
   10ARG     CD 7507   3.073   2.085   6.409
   10ARG    HD2 7508   3.095   2.154   6.328
   10ARG    HD3 7509   3.081   2.130   6.509
   10ARG     NE 7510   3.182   1.984   6.388
   10ARG     HE 7511   3.188   1.947   6.295
   10ARG     CZ 7512   3.257   1.932   6.488
   10ARG    NH1 7513   3.213   1.936   6.611
   10ARG   HH11 7514   3.117   1.953   6.639
   10ARG   HH12 7515   3.281   1.909   6.682
   10ARG    NH2 7516   3.375   1.879   6.463
   10ARG   HH21 7517   3.426   1.890   6.377
   10ARG   HH22 7518   3.422   1.838   6.542
   10ARG      C 7519   2.777   1.701   6.551
   10ARG      O 7520   2.753   1.707   6.673
   11ARG      N 7521   2.801   1.580   6.497
   11ARG      H 7522   2.816   1.582   6.397
   11ARG     CA 7523   2.813   1.449   6.561
   11ARG     HA 7524   2.866   1.473   6.654
   11ARG     CB 7525   2.671   1.384   6.600
   11ARG    HB2 7526   2.686   1.279   6.629
   11ARG    HB3 7527   2.625   1.440   6.681
   11ARG     CG 7528   2.575   1.377   6.479
   11ARG    HG2 7529   2.569   1.477   6.438
   11ARG    HG3 7530   2.620   1.317   6.399
   11ARG     CD 7531   2.426   1.332   6.518
   11ARG    HD2 7532   2.437   1.225   6.524
   11ARG    HD3 7533   2.397   1.381   6.611
   11ARG     NE 7534   2.335   1.362   6.405
   11ARG     HE 7535   2.344   1.319   6.313
   11ARG     CZ 7536   2.251   1.462   6.403
   11ARG    NH1 7537   2.233   1.560   6.490
   11ARG   HH11 7538   2.279   1.566   6.579
   11ARG   HH12 7539   2.182   1.641   6.460
   11ARG    NH2 7540   2.177   1.477   6.297
   11ARG   HH21 7541   2.201   1.422   6.217
   11ARG   HH22 7542   2.088   1.526   6.298
   11ARG      C 7543   2.904   1.360   6.479
   11ARG      O 7544   2.894   1.373   6.355
   12LYS      N 7545   2.972   1.261   6.538
   12LYS      H 7546   2.967   1.264   6.638
   12LYS     CA 7547   3.052   1.158   6.468
   12LYS     HA 7548   3.134   1.219   6.433
   12LYS     CB 7549   3.096   1.056   6.577
   12LYS    HB2 7550   3.118   1.103   6.672
   12LYS    HB3 7551   3.010   0.994   6.603
   12LYS     CG 7552   3.216   0.974   6.550
   12LYS    HG2 7553   3.208   0.924   6.453
   12LYS    HG3 7554   3.305   1.038   6.555
   12LYS     CD 7555   3.236   0.869   6.652
   12LYS    HD2 7556   3.255   0.914   6.749
   12LYS    HD3 7557   3.150   0.803   6.656
   12LYS     CE 7558   3.358   0.779   6.603
   12LYS    HE2 7559   3.338   0.745   6.502
   12LYS    HE3 7560   3.456   0.826   6.593
   12LYS     NZ 7561   3.374   0.658   6.686
   12LYS    HZ1 7562   3.420   0.672   6.775
   12LYS    HZ2 7563   3.290   0.605   6.703
   12LYS    HZ3 7564   3.442   0.601   6.636
   12LYS      C 7565   2.997   1.089   6.343
   12LYS      O 7566   2.881   1.053   6.341
   13NHE      N 7567   3.095   1.060   6.253
   13NHE    HN1 7568   3.190   1.094   6.264
   13NHE    HN2 7569   3.078   1.006   6.171
    1ILE      N 7570   4.113   3.682   4.553
    1ILE     H1 7571   4.096   3.585   4.531
    1ILE     H2 7572   4.071   3.751   4.490
    1ILE     H3 7573   4.058   3.687   4.637
    1ILE     CA 7574   4.248   3.725   4.595
    1ILE     HA 7575   4.237   3.819   4.648
    1ILE     CB 7576   4.315   3.615   4.688
    1ILE     HB 7577   4.253   3.575   4.768
    1ILE    CG2 7578   4.348   3.498   4.594
    1ILE   HG21 7579   4.451   3.503   4.559
    1ILE   HG22 7580   4.333   3.399   4.639
    1ILE   HG23 7581   4.286   3.499   4.505
    1ILE    CG1 7582   4.434   3.667   4.773
    1ILE   HG12 7583   4.412   3.766   4.815
    1ILE   HG13 7584   4.522   3.675   4.710
    1ILE    CD1 7585   4.469   3.575   4.892
    1ILE   HD11 7586   4.504   3.477   4.860
    1ILE   HD12 7587   4.560   3.614   4.938
    1ILE   HD13 7588   4.392   3.563   4.968
    1ILE      C 7589   4.331   3.769   4.476
    1ILE      O 7590   4.314   3.712   4.370
    2LEU      N 7591   4.418   3.868   4.496
    2LEU      H 7592   4.424   3.904   4.589
    2LEU     CA 7593   4.531   3.895   4.405
    2LEU     HA 7594   4.528   3.835   4.313
    2LEU     CB 7595   4.527   4.037   4.350
    2LEU    HB2 7596   4.578   4.099   4.424
    2LEU    HB3 7597   4.585   4.041   4.259
    2LEU     CG 7598   4.392   4.102   4.324
    2LEU     HG 7599   4.330   4.117   4.413
    2LEU    CD1 7600   4.416   4.253   4.282
    2LEU   HD11 7601   4.431   4.310   4.373
    2LEU   HD12 7602   4.503   4.259   4.217
    2LEU   HD13 7603   4.335   4.300   4.224
    2LEU    CD2 7604   4.317   4.036   4.215
    2LEU   HD21 7605   4.390   4.014   4.137
    2LEU   HD22 7606   4.289   3.936   4.250
    2LEU   HD23 7607   4.230   4.088   4.176
    2LEU      C 7608   4.669   3.868   4.468
    2LEU      O 7609   4.687   3.872   4.591
    3ARG      N 7610   4.762   3.825   4.385
    3ARG      H 7611   4.738   3.821   4.287
    3ARG     CA 7612   4.897   3.779   4.425
    3ARG     HA 7613   4.913   3.808   4.529
    3ARG     CB 7614   4.912   3.624   4.423
    3ARG    HB2 7615   5.002   3.601   4.479
    3ARG    HB3 7616   4.830   3.587   4.486
    3ARG     CG 7617   4.912   3.549   4.286
    3ARG    HG2 7618   4.825   3.572   4.226
    3ARG    HG3 7619   5.003   3.574   4.232
    3ARG     CD 7620   4.919   3.397   4.297
    3ARG    HD2 7621   4.963   3.361   4.203
    3ARG    HD3 7622   4.997   3.371   4.368
    3ARG     NE 7623   4.795   3.331   4.320
    3ARG     HE 7624   4.741   3.315   4.237
    3ARG     CZ 7625   4.755   3.275   4.435
    3ARG    NH1 7626   4.837   3.254   4.537
    3ARG   HH11 7627   4.921   3.306   4.548
    3ARG   HH12 7628   4.810   3.206   4.620
    3ARG    NH2 7629   4.627   3.231   4.439
    3ARG   HH21 7630   4.565   3.234   4.359
    3ARG   HH22 7631   4.598   3.181   4.522
    3ARG      C 7632   5.007   3.839   4.341
    3ARG      O 7633   4.986   3.888   4.231
    4TRP      N 7634   5.123   3.858   4.405
    4TRP      H 7635   5.139   3.815   4.494
    4TRP     CA 7636   5.237   3.934   4.345
    4TRP     HA 7637   5.226   3.940   4.237
    4TRP     CB 7638   5.230   4.081   4.404
    4TRP    HB2 7639   5.207   4.080   4.511
    4TRP    HB3 7640   5.318   4.140   4.377
    4TRP     CG 7641   5.116   4.163   4.350
    4TRP    CD1 7642   5.115   4.224   4.231
    4TRP    HD1 7643   5.192   4.221   4.155
    4TRP    NE1 7644   5.002   4.299   4.221
    4TRP    HE1 7645   4.979   4.349   4.135
    4TRP    CE2 7646   4.924   4.290   4.332
    4TRP    CZ2 7647   4.800   4.341   4.373
    4TRP    HZ2 7648   4.738   4.411   4.318
    4TRP    CH2 7649   4.746   4.298   4.493
    4TRP    HH2 7650   4.653   4.335   4.532
    4TRP    CZ3 7651   4.800   4.190   4.563
    4TRP    HZ3 7652   4.753   4.162   4.657
    4TRP    CE3 7653   4.926   4.133   4.528
    4TRP    HE3 7654   4.971   4.052   4.585
    4TRP    CD2 7655   4.992   4.186   4.412
    4TRP      C 7656   5.380   3.866   4.384
    4TRP      O 7657   5.383   3.781   4.473
    5PRO      N 7658   5.490   3.912   4.326
    5PRO     CD 7659   5.484   3.978   4.198
    5PRO    HD2 7660   5.491   4.086   4.209
    5PRO    HD3 7661   5.396   3.954   4.135
    5PRO     CG 7662   5.612   3.928   4.125
    5PRO    HG2 7663   5.646   3.997   4.047
    5PRO    HG3 7664   5.589   3.832   4.076
    5PRO     CB 7665   5.711   3.920   4.238
    5PRO    HB2 7666   5.744   4.020   4.269
    5PRO    HB3 7667   5.787   3.849   4.207
    5PRO     CA 7668   5.626   3.866   4.351
    5PRO     HA 7669   5.625   3.758   4.343
    5PRO      C 7670   5.682   3.905   4.489
    5PRO      O 7671   5.617   3.999   4.544
    6TRP      N 7672   5.797   3.865   4.539
    6TRP      H 7673   5.831   3.784   4.488
    6TRP     CA 7674   5.865   3.916   4.666
    6TRP     HA 7675   5.791   3.933   4.744
    6TRP     CB 7676   5.960   3.801   4.716
    6TRP    HB2 7677   6.024   3.771   4.632
    6TRP    HB3 7678   6.029   3.828   4.796
    6TRP     CG 7679   5.893   3.677   4.777
    6TRP    CD1 7680   5.864   3.562   4.711
    6TRP    HD1 7681   5.899   3.548   4.609
    6TRP    NE1 7682   5.789   3.468   4.788
    6TRP    HE1 7683   5.754   3.384   4.745
    6TRP    CE2 7684   5.752   3.532   4.902
    6TRP    CZ2 7685   5.671   3.495   5.010
    6TRP    HZ2 7686   5.610   3.406   5.004
    6TRP    CH2 7687   5.657   3.573   5.124
    6TRP    HH2 7688   5.587   3.537   5.197
    6TRP    CZ3 7689   5.716   3.699   5.136
    6TRP    HZ3 7690   5.700   3.763   5.221
    6TRP    CE3 7691   5.796   3.741   5.024
    6TRP    HE3 7692   5.848   3.836   5.029
    6TRP    CD2 7693   5.819   3.659   4.906
    6TRP      C 7694   5.937   4.043   4.652
    6TRP      O 7695   5.978   4.105   4.752
    7TRP      N 7696   5.957   4.089   4.526
    7TRP      H 7697   5.919   4.030   4.453
    7TRP     CA 7698   6.041   4.204   4.492
    7TRP     HA 7699   6.134   4.192   4.548
    7TRP     CB 7700   6.063   4.208   4.341
    7TRP    HB2 7701   5.991   4.274   4.294
    7TRP    HB3 7702   6.156   4.261   4.325
    7TRP     CG 7703   6.082   4.082   4.257
    7TRP    CD1 7704   6.070   4.071   4.122
    7TRP    HD1 7705   6.044   4.155   4.058
    7TRP    NE1 7706   6.092   3.946   4.072
    7TRP    HE1 7707   6.076   3.929   3.974
    7TRP    CE2 7708   6.133   3.865   4.177
    7TRP    CZ2 7709   6.174   3.733   4.175
    7TRP    HZ2 7710   6.175   3.680   4.080
    7TRP    CH2 7711   6.206   3.668   4.295
    7TRP    HH2 7712   6.242   3.566   4.289
    7TRP    CZ3 7713   6.200   3.740   4.415
    7TRP    HZ3 7714   6.216   3.689   4.510
    7TRP    CE3 7715   6.174   3.880   4.410
    7TRP    HE3 7716   6.189   3.942   4.497
    7TRP    CD2 7717   6.131   3.947   4.292
    7TRP      C 7718   5.973   4.328   4.545
    7TRP      O 7719   5.850   4.335   4.536
    8PRO      N 7720   6.044   4.437   4.583
    8PRO     CD 7721   6.188   4.459   4.570
    8PRO    HD2 7722   6.221   4.442   4.467
    8PRO    HD3 7723   6.238   4.393   4.641
    8PRO     CG 7724   6.206   4.607   4.597
    8PRO    HG2 7725   6.213   4.661   4.503
    8PRO    HG3 7726   6.301   4.624   4.648
    8PRO     CB 7727   6.086   4.649   4.686
    8PRO    HB2 7728   6.055   4.750   4.660
    8PRO    HB3 7729   6.107   4.625   4.791
    8PRO     CA 7730   5.976   4.555   4.641
    8PRO     HA 7731   5.922   4.530   4.733
    8PRO      C 7732   5.883   4.627   4.545
    8PRO      O 7733   5.930   4.682   4.441
    9TRP      N 7734   5.753   4.626   4.582
    9TRP      H 7735   5.725   4.576   4.663
    9TRP     CA 7736   5.645   4.701   4.513
    9TRP     HA 7737   5.680   4.791   4.463
    9TRP     CB 7738   5.578   4.601   4.412
    9TRP    HB2 7739   5.560   4.513   4.472
    9TRP    HB3 7740   5.485   4.647   4.379
    9TRP     CG 7741   5.665   4.550   4.294
    9TRP    CD1 7742   5.706   4.426   4.259
    9TRP    HD1 7743   5.676   4.334   4.304
    9TRP    NE1 7744   5.788   4.425   4.146
    9TRP    HE1 7745   5.829   4.347   4.098
    9TRP    CE2 7746   5.823   4.555   4.111
    9TRP    CZ2 7747   5.899   4.615   4.009
    9TRP    HZ2 7748   5.953   4.554   3.940
    9TRP    CH2 7749   5.888   4.751   3.986
    9TRP    HH2 7750   5.943   4.788   3.901
    9TRP    CZ3 7751   5.809   4.830   4.072
    9TRP    HZ3 7752   5.809   4.935   4.051
    9TRP    CE3 7753   5.735   4.772   4.179
    9TRP    HE3 7754   5.667   4.834   4.235
    9TRP    CD2 7755   5.744   4.634   4.201
    9TRP      C 7756   5.539   4.748   4.615
    9TRP      O 7757   5.478   4.670   4.684
   10ARG      N 7758   5.517   4.878   4.621
   10ARG      H 7759   5.587   4.937   4.576
   10ARG     CA 7760   5.416   4.936   4.699
   10ARG     HA 7761   5.413   4.885   4.795
   10ARG     CB 7762   5.446   5.084   4.711
   10ARG    HB2 7763   5.452   5.130   4.612
   10ARG    HB3 7764   5.356   5.128   4.754
   10ARG     CG 7765   5.568   5.123   4.791
   10ARG    HG2 7766   5.549   5.079   4.889
   10ARG    HG3 7767   5.660   5.072   4.763
   10ARG     CD 7768   5.589   5.280   4.799
   10ARG    HD2 7769   5.664   5.304   4.874
   10ARG    HD3 7770   5.609   5.323   4.700
   10ARG     NE 7771   5.468   5.344   4.861
   10ARG     HE 7772   5.450   5.317   4.956
   10ARG     CZ 7773   5.379   5.419   4.792
   10ARG    NH1 7774   5.369   5.406   4.662
   10ARG   HH11 7775   5.407   5.329   4.607
   10ARG   HH12 7776   5.312   5.475   4.616
   10ARG    NH2 7777   5.302   5.505   4.854
   10ARG   HH21 7778   5.315   5.537   4.948
   10ARG   HH22 7779   5.234   5.553   4.797
   10ARG      C 7780   5.281   4.916   4.631
   10ARG      O 7781   5.268   4.923   4.508
   11ARG      N 7782   5.171   4.888   4.705
   11ARG      H 7783   5.188   4.882   4.804
   11ARG     CA 7784   5.031   4.872   4.663
   11ARG     HA 7785   5.021   4.949   4.586
   11ARG     CB 7786   5.001   4.730   4.596
   11ARG    HB2 7787   4.893   4.716   4.586
   11ARG    HB3 7788   5.050   4.722   4.499
   11ARG     CG 7789   5.045   4.612   4.687
   11ARG    HG2 7790   5.149   4.629   4.712
   11ARG    HG3 7791   4.993   4.617   4.783
   11ARG     CD 7792   5.035   4.469   4.615
   11ARG    HD2 7793   4.931   4.446   4.626
   11ARG    HD3 7794   5.072   4.478   4.513
   11ARG     NE 7795   5.111   4.369   4.695
   11ARG     HE 7796   5.087   4.344   4.790
   11ARG     CZ 7797   5.229   4.323   4.661
   11ARG    NH1 7798   5.309   4.356   4.562
   11ARG   HH11 7799   5.284   4.421   4.488
   11ARG   HH12 7800   5.405   4.328   4.567
   11ARG    NH2 7801   5.285   4.236   4.741
   11ARG   HH21 7802   5.242   4.224   4.831
   11ARG   HH22 7803   5.355   4.170   4.711
   11ARG      C 7804   4.939   4.910   4.777
   11ARG      O 7805   4.978   4.878   4.891
   12LYS      N 7806   4.816   4.954   4.752
   12LYS      H 7807   4.799   4.973   4.655
   12LYS     CA 7808   4.710   4.981   4.853
   12LYS     HA 7809   4.752   5.068   4.901
   12LYS     CB 7810   4.581   5.013   4.773
   12LYS    HB2 7811   4.600   5.069   4.683
   12LYS    HB3 7812   4.541   4.920   4.733
   12LYS     CG 7813   4.476   5.093   4.842
   12LYS    HG2 7814   4.451   5.048   4.938
   12LYS    HG3 7815   4.511   5.196   4.853
   12LYS     CD 7816   4.351   5.100   4.763
   12LYS    HD2 7817   4.369   5.153   4.669
   12LYS    HD3 7818   4.312   5.000   4.744
   12LYS     CE 7819   4.244   5.173   4.854
   12LYS    HE2 7820   4.237   5.122   4.949
   12LYS    HE3 7821   4.262   5.276   4.884
   12LYS     NZ 7822   4.108   5.168   4.794
   12LYS    HZ1 7823   4.091   5.235   4.720
   12LYS    HZ2 7824   4.078   5.077   4.762
   12LYS    HZ3 7825   4.046   5.202   4.867
   12LYS      C 7826   4.686   4.880   4.966
   12LYS      O 7827   4.685   4.762   4.942
   13NHE      N 7828   4.650   4.943   5.082
   13NHE    HN1 7829   4.653   5.044   5.093
   13NHE    HN2 7830   4.620   4.892   5.163
    1ILE      N 7831   9.847   6.914   8.594
    1ILE     H1 7832   9.778   6.908   8.666
    1ILE     H2 7833   9.937   6.954   8.621
    1ILE     H3 7834   9.866   6.815   8.585
    1ILE     CA 7835   9.809   6.957   8.458
    1ILE     HA 7836   9.886   6.921   8.391
    1ILE     CB 7837   9.667   6.898   8.419
    1ILE     HB 7838   9.651   6.792   8.439
    1ILE    CG2 7839   9.566   6.976   8.505
    1ILE   HG21 7840   9.524   7.060   8.451
    1ILE   HG22 7841   9.483   6.915   8.542
    1ILE   HG23 7842   9.613   7.017   8.593
    1ILE    CG1 7843   9.637   6.898   8.267
    1ILE   HG12 7844   9.725   6.866   8.209
    1ILE   HG13 7845   9.610   6.998   8.235
    1ILE    CD1 7846   9.522   6.803   8.227
    1ILE   HD11 7847   9.427   6.833   8.269
    1ILE   HD12 7848   9.502   6.819   8.121
    1ILE   HD13 7849   9.538   6.697   8.245
    1ILE      C 7850   9.824   7.107   8.442
    1ILE      O 7851   9.801   7.178   8.538
    2LEU      N 7852   9.861   7.152   8.322
    2LEU      H 7853   9.873   7.082   8.250
    2LEU     CA 7854   9.842   7.291   8.279
    2LEU     HA 7855   9.808   7.357   8.360
    2LEU     CB 7856   9.973   7.356   8.239
    2LEU    HB2 7857   9.989   7.331   8.133
    2LEU    HB3 7858   9.963   7.464   8.245
    2LEU     CG 7859  10.101   7.316   8.312
    2LEU     HG 7860  10.131   7.212   8.300
    2LEU    CD1 7861  10.224   7.388   8.241
    2LEU   HD11 7862  10.250   7.328   8.153
    2LEU   HD12 7863  10.196   7.489   8.212
    2LEU   HD13 7864  10.314   7.400   8.303
    2LEU    CD2 7865  10.100   7.358   8.454
    2LEU   HD21 7866  10.058   7.458   8.456
    2LEU   HD22 7867  10.024   7.298   8.505
    2LEU   HD23 7868  10.195   7.352   8.507
    2LEU      C 7869   9.740   7.307   8.165
    2LEU      O 7870   9.714   7.215   8.086
    3ARG      N 7871   9.671   7.419   8.167
    3ARG      H 7872   9.695   7.488   8.237
    3ARG     CA 7873   9.557   7.450   8.077
    3ARG     HA 7874   9.557   7.376   7.996
    3ARG     CB 7875   9.418   7.436   8.146
    3ARG    HB2 7876   9.344   7.434   8.066
    3ARG    HB3 7877   9.417   7.335   8.188
    3ARG     CG 7878   9.377   7.539   8.256
    3ARG    HG2 7879   9.450   7.547   8.336
    3ARG    HG3 7880   9.360   7.636   8.210
    3ARG     CD 7881   9.243   7.511   8.322
    3ARG    HD2 7882   9.204   7.607   8.360
    3ARG    HD3 7883   9.169   7.488   8.245
    3ARG     NE 7884   9.244   7.416   8.429
    3ARG     HE 7885   9.271   7.454   8.517
    3ARG     CZ 7886   9.198   7.290   8.423
    3ARG    NH1 7887   9.123   7.245   8.325
    3ARG   HH11 7888   9.123   7.289   8.235
    3ARG   HH12 7889   9.082   7.155   8.324
    3ARG    NH2 7890   9.225   7.212   8.531
    3ARG   HH21 7891   9.272   7.246   8.613
    3ARG   HH22 7892   9.183   7.120   8.532
    3ARG      C 7893   9.566   7.588   8.015
    3ARG      O 7894   9.636   7.676   8.063
    4TRP      N 7895   9.513   7.600   7.893
    4TRP      H 7896   9.454   7.527   7.856
    4TRP     CA 7897   9.530   7.721   7.808
    4TRP     HA 7898   9.558   7.806   7.870
    4TRP     CB 7899   9.649   7.691   7.708
    4TRP    HB2 7900   9.642   7.589   7.667
    4TRP    HB3 7901   9.659   7.769   7.632
    4TRP     CG 7902   9.784   7.688   7.772
    4TRP    CD1 7903   9.856   7.796   7.805
    4TRP    HD1 7904   9.827   7.900   7.793
    4TRP    NE1 7905   9.979   7.756   7.849
    4TRP    HE1 7906  10.046   7.823   7.885
    4TRP    CE2 7907   9.992   7.620   7.849
    4TRP    CZ2 7908  10.091   7.529   7.886
    4TRP    HZ2 7909  10.190   7.552   7.922
    4TRP    CH2 7910  10.061   7.393   7.881
    4TRP    HH2 7911  10.133   7.317   7.905
    4TRP    CZ3 7912   9.932   7.347   7.862
    4TRP    HZ3 7913   9.916   7.240   7.859
    4TRP    CE3 7914   9.826   7.434   7.823
    4TRP    HE3 7915   9.724   7.398   7.804
    4TRP    CD2 7916   9.856   7.574   7.812
    4TRP      C 7917   9.394   7.754   7.724
    4TRP      O 7918   9.306   7.668   7.718
    5PRO      N 7919   9.387   7.868   7.657
    5PRO     CD 7920   9.468   7.981   7.694
    5PRO    HD2 7921   9.554   7.992   7.630
    5PRO    HD3 7922   9.501   7.983   7.800
    5PRO     CG 7923   9.372   8.103   7.671
    5PRO    HG2 7924   9.427   8.196   7.654
    5PRO    HG3 7925   9.311   8.116   7.760
    5PRO     CB 7926   9.298   8.059   7.547
    5PRO    HB2 7927   9.361   8.066   7.458
    5PRO    HB3 7928   9.205   8.114   7.548
    5PRO     CA 7929   9.276   7.911   7.574
    5PRO     HA 7930   9.185   7.901   7.633
    5PRO      C 7931   9.258   7.831   7.443
    5PRO      O 7932   9.362   7.766   7.411
    6TRP      N 7933   9.158   7.845   7.358
    6TRP      H 7934   9.081   7.893   7.403
    6TRP     CA 7935   9.147   7.783   7.219
    6TRP     HA 7936   9.186   7.681   7.220
    6TRP     CB 7937   8.993   7.774   7.186
    6TRP    HB2 7938   8.949   7.873   7.202
    6TRP    HB3 7939   8.969   7.748   7.083
    6TRP     CG 7940   8.912   7.669   7.262
    6TRP    CD1 7941   8.839   7.690   7.375
    6TRP    HD1 7942   8.827   7.792   7.412
    6TRP    NE1 7943   8.785   7.573   7.433
    6TRP    HE1 7944   8.738   7.577   7.522
    6TRP    CE2 7945   8.839   7.468   7.366
    6TRP    CZ2 7946   8.831   7.329   7.383
    6TRP    HZ2 7947   8.787   7.288   7.473
    6TRP    CH2 7948   8.885   7.239   7.294
    6TRP    HH2 7949   8.878   7.135   7.322
    6TRP    CZ3 7950   8.961   7.279   7.183
    6TRP    HZ3 7951   9.009   7.209   7.117
    6TRP    CE3 7952   8.975   7.421   7.167
    6TRP    HE3 7953   9.028   7.459   7.080
    6TRP    CD2 7954   8.912   7.519   7.254
    6TRP      C 7955   9.221   7.853   7.113
    6TRP      O 7956   9.236   7.800   7.001
    7TRP      N 7957   9.271   7.975   7.143
    7TRP      H 7958   9.251   8.006   7.236
    7TRP     CA 7959   9.331   8.065   7.044
    7TRP     HA 7960   9.265   8.066   6.958
    7TRP     CB 7961   9.348   8.204   7.108
    7TRP    HB2 7962   9.448   8.215   7.148
    7TRP    HB3 7963   9.349   8.274   7.025
    7TRP     CG 7964   9.245   8.264   7.202
    7TRP    CD1 7965   9.264   8.369   7.287
    7TRP    HD1 7966   9.359   8.421   7.296
    7TRP    NE1 7967   9.156   8.404   7.361
    7TRP    HE1 7968   9.165   8.474   7.433
    7TRP    CE2 7969   9.049   8.325   7.319
    7TRP    CZ2 7970   8.916   8.329   7.359
    7TRP    HZ2 7971   8.886   8.400   7.436
    7TRP    CH2 7972   8.825   8.236   7.307
    7TRP    HH2 7973   8.721   8.244   7.337
    7TRP    CZ3 7974   8.870   8.143   7.212
    7TRP    HZ3 7975   8.803   8.065   7.176
    7TRP    CE3 7976   9.003   8.154   7.161
    7TRP    HE3 7977   9.034   8.100   7.073
    7TRP    CD2 7978   9.101   8.240   7.219
    7TRP      C 7979   9.462   8.004   7.001
    7TRP      O 7980   9.531   7.948   7.085
    8PRO      N 7981   9.513   8.026   6.876
    8PRO     CD 7982   9.461   8.117   6.774
    8PRO    HD2 7983   9.447   8.218   6.815
    8PRO    HD3 7984   9.368   8.074   6.736
    8PRO     CG 7985   9.573   8.126   6.672
    8PRO    HG2 7986   9.631   8.217   6.690
    8PRO    HG3 7987   9.532   8.137   6.573
    8PRO     CB 7988   9.654   7.995   6.687
    8PRO    HB2 7989   9.760   8.016   6.670
    8PRO    HB3 7990   9.606   7.915   6.629
    8PRO     CA 7991   9.637   7.960   6.833
    8PRO     HA 7992   9.629   7.851   6.834
    8PRO      C 7993   9.761   8.002   6.910
    8PRO      O 7994   9.801   8.123   6.905
    9TRP      N 7995   9.820   7.902   6.981
    9TRP      H 7996   9.778   7.812   6.982
    9TRP     CA 7997   9.949   7.914   7.053
    9TRP     HA 7998  10.016   7.988   7.009
    9TRP     CB 7999   9.913   7.948   7.202
    9TRP    HB2 8000   9.838   7.874   7.228
    9TRP    HB3 8001  10.005   7.933   7.260
    9TRP     CG 8002   9.847   8.084   7.230
    9TRP    CD1 8003   9.726   8.117   7.284
    9TRP    HD1 8004   9.656   8.049   7.328
    9TRP    NE1 8005   9.703   8.254   7.288
    9TRP    HE1 8006   9.624   8.304   7.325
    9TRP    CE2 8007   9.801   8.321   7.217
    9TRP    CZ2 8008   9.831   8.456   7.188
    9TRP    HZ2 8009   9.762   8.533   7.218
    9TRP    CH2 8010   9.955   8.490   7.139
    9TRP    HH2 8011   9.973   8.596   7.128
    9TRP    CZ3 8012  10.048   8.389   7.108
    9TRP    HZ3 8013  10.141   8.423   7.065
    9TRP    CE3 8014  10.019   8.251   7.131
    9TRP    HE3 8015  10.096   8.178   7.117
    9TRP    CD2 8016   9.893   8.216   7.183
    9TRP      C 8017  10.025   7.780   7.047
    9TRP      O 8018   9.978   7.678   7.093
   10ARG      N 8019  10.145   7.783   6.994
   10ARG      H 8020  10.168   7.867   6.940
   10ARG     CA 8021  10.233   7.673   6.992
   10ARG     HA 8022  10.176   7.584   6.970
   10ARG     CB 8023  10.341   7.702   6.890
   10ARG    HB2 8024  10.394   7.795   6.915
   10ARG    HB3 8025  10.417   7.625   6.907
   10ARG     CG 8026  10.300   7.706   6.745
   10ARG    HG2 8027  10.256   7.607   6.729
   10ARG    HG3 8028  10.215   7.770   6.723
   10ARG     CD 8029  10.422   7.734   6.647
   10ARG    HD2 8030  10.392   7.716   6.545
   10ARG    HD3 8031  10.464   7.833   6.664
   10ARG     NE 8032  10.526   7.628   6.665
   10ARG     HE 8033  10.497   7.535   6.641
   10ARG     CZ 8034  10.646   7.650   6.724
   10ARG    NH1 8035  10.661   7.751   6.806
   10ARG   HH11 8036  10.586   7.805   6.848
   10ARG   HH12 8037  10.757   7.770   6.834
   10ARG    NH2 8038  10.748   7.570   6.701
   10ARG   HH21 8039  10.753   7.504   6.626
   10ARG   HH22 8040  10.832   7.590   6.753
   10ARG      C 8041  10.295   7.655   7.131
   10ARG      O 8042  10.327   7.753   7.201
   11ARG      N 8043  10.315   7.532   7.181
   11ARG      H 8044  10.284   7.457   7.120
   11ARG     CA 8045  10.378   7.489   7.306
   11ARG     HA 8046  10.461   7.561   7.315
   11ARG     CB 8047  10.283   7.508   7.434
   11ARG    HB2 8048  10.328   7.457   7.521
   11ARG    HB3 8049  10.268   7.614   7.455
   11ARG     CG 8050  10.146   7.438   7.416
   11ARG    HG2 8051  10.104   7.475   7.324
   11ARG    HG3 8052  10.161   7.331   7.399
   11ARG     CD 8053  10.041   7.470   7.533
   11ARG    HD2 8054  10.073   7.403   7.611
   11ARG    HD3 8055  10.048   7.576   7.558
   11ARG     NE 8056   9.905   7.429   7.490
   11ARG     HE 8057   9.881   7.333   7.468
   11ARG     CZ 8058   9.813   7.512   7.450
   11ARG    NH1 8059   9.817   7.643   7.431
   11ARG   HH11 8060   9.896   7.701   7.455
   11ARG   HH12 8061   9.744   7.685   7.377
   11ARG    NH2 8062   9.698   7.462   7.414
   11ARG   HH21 8063   9.694   7.363   7.402
   11ARG   HH22 8064   9.611   7.514   7.416
   11ARG      C 8065  10.438   7.351   7.290
   11ARG      O 8066  10.372   7.272   7.219
   12LYS      N 8067  10.541   7.315   7.365
   12LYS      H 8068  10.582   7.390   7.418
   12LYS     CA 8069  10.600   7.178   7.371
   12LYS     HA 8070  10.645   7.174   7.273
   12LYS     CB 8071  10.706   7.181   7.485
   12LYS    HB2 8072  10.759   7.275   7.491
   12LYS    HB3 8073  10.653   7.179   7.580
   12LYS     CG 8074  10.815   7.080   7.480
   12LYS    HG2 8075  10.774   6.980   7.469
   12LYS    HG3 8076  10.883   7.105   7.398
   12LYS     CD 8077  10.897   7.082   7.603
   12LYS    HD2 8078  10.948   7.177   7.613
   12LYS    HD3 8079  10.835   7.061   7.690
   12LYS     CE 8080  10.998   6.960   7.592
   12LYS    HE2 8081  10.942   6.869   7.572
   12LYS    HE3 8082  11.071   6.961   7.511
   12LYS     NZ 8083  11.072   6.937   7.719
   12LYS    HZ1 8084  11.149   7.000   7.736
   12LYS    HZ2 8085  11.015   6.934   7.802
   12LYS    HZ3 8086  11.120   6.848   7.705
   12LYS      C 8087  10.509   7.055   7.379
   12LYS      O 8088  10.413   7.057   7.452
   13NHE      N 8089  10.561   6.950   7.311
   13NHE    HN1 8090  10.643   6.957   7.252
   13NHE    HN2 8091  10.519   6.858   7.315
    1ILE      N 8092   6.309   1.575   5.671
    1ILE     H1 8093   6.208   1.582   5.677
    1ILE     H2 8094   6.345   1.500   5.612
    1ILE     H3 8095   6.326   1.659   5.619
    1ILE     CA 8096   6.391   1.590   5.792
    1ILE     HA 8097   6.491   1.616   5.761
    1ILE     CB 8098   6.330   1.702   5.887
    1ILE     HB 8099   6.302   1.796   5.840
    1ILE    CG2 8100   6.201   1.640   5.945
    1ILE   HG21 8101   6.218   1.595   6.042
    1ILE   HG22 8102   6.119   1.712   5.955
    1ILE   HG23 8103   6.163   1.561   5.881
    1ILE    CG1 8104   6.429   1.757   5.993
    1ILE   HG12 8105   6.528   1.773   5.950
    1ILE   HG13 8106   6.438   1.686   6.075
    1ILE    CD1 8107   6.386   1.893   6.053
    1ILE   HD11 8108   6.293   1.885   6.109
    1ILE   HD12 8109   6.455   1.917   6.133
    1ILE   HD13 8110   6.379   1.977   5.984
    1ILE      C 8111   6.416   1.456   5.859
    1ILE      O 8112   6.328   1.371   5.853
    2LEU      N 8113   6.533   1.439   5.920
    2LEU      H 8114   6.595   1.518   5.920
    2LEU     CA 8115   6.557   1.333   6.020
    2LEU     HA 8116   6.474   1.262   6.029
    2LEU     CB 8117   6.672   1.243   5.980
    2LEU    HB2 8118   6.763   1.292   6.017
    2LEU    HB3 8119   6.663   1.148   6.032
    2LEU     CG 8120   6.696   1.214   5.832
    2LEU     HG 8121   6.722   1.301   5.772
    2LEU    CD1 8122   6.830   1.130   5.818
    2LEU   HD11 8123   6.912   1.200   5.822
    2LEU   HD12 8124   6.836   1.057   5.899
    2LEU   HD13 8125   6.839   1.070   5.727
    2LEU    CD2 8126   6.586   1.134   5.772
    2LEU   HD21 8127   6.560   1.059   5.846
    2LEU   HD22 8128   6.497   1.198   5.770
    2LEU   HD23 8129   6.604   1.092   5.674
    2LEU      C 8130   6.581   1.387   6.162
    2LEU      O 8131   6.624   1.502   6.183
    3ARG      N 8132   6.538   1.310   6.260
    3ARG      H 8133   6.500   1.220   6.235
    3ARG     CA 8134   6.536   1.348   6.403
    3ARG     HA 8135   6.597   1.438   6.415
    3ARG     CB 8136   6.394   1.387   6.455
    3ARG    HB2 8137   6.409   1.437   6.550
    3ARG    HB3 8138   6.360   1.465   6.387
    3ARG     CG 8139   6.285   1.276   6.469
    3ARG    HG2 8140   6.270   1.220   6.377
    3ARG    HG3 8141   6.313   1.208   6.550
    3ARG     CD 8142   6.149   1.327   6.513
    3ARG    HD2 8143   6.097   1.243   6.562
    3ARG    HD3 8144   6.162   1.394   6.597
    3ARG     NE 8145   6.065   1.379   6.410
    3ARG     HE 8146   6.015   1.309   6.359
    3ARG     CZ 8147   6.038   1.508   6.388
    3ARG    NH1 8148   6.066   1.603   6.475
    3ARG   HH11 8149   6.137   1.591   6.545
    3ARG   HH12 8150   6.039   1.698   6.464
    3ARG    NH2 8151   5.970   1.537   6.274
    3ARG   HH21 8152   5.936   1.466   6.211
    3ARG   HH22 8153   5.940   1.633   6.262
    3ARG      C 8154   6.593   1.240   6.494
    3ARG      O 8155   6.601   1.124   6.457
    4TRP      N 8156   6.655   1.284   6.604
    4TRP      H 8157   6.643   1.380   6.632
    4TRP     CA 8158   6.733   1.195   6.694
    4TRP     HA 8159   6.704   1.091   6.678
    4TRP     CB 8160   6.886   1.212   6.653
    4TRP    HB2 8161   6.910   1.317   6.635
    4TRP    HB3 8162   6.952   1.161   6.723
    4TRP     CG 8163   6.921   1.150   6.522
    4TRP    CD1 8164   6.943   1.019   6.501
    4TRP    HD1 8165   6.936   0.939   6.575
    4TRP    NE1 8166   6.985   1.000   6.374
    4TRP    HE1 8167   7.001   0.907   6.336
    4TRP    CE2 8168   6.991   1.117   6.304
    4TRP    CZ2 8169   7.023   1.154   6.173
    4TRP    HZ2 8170   7.059   1.090   6.094
    4TRP    CH2 8171   7.006   1.287   6.135
    4TRP    HH2 8172   7.031   1.323   6.037
    4TRP    CZ3 8173   6.937   1.377   6.215
    4TRP    HZ3 8174   6.928   1.479   6.180
    4TRP    CE3 8175   6.902   1.347   6.350
    4TRP    HE3 8176   6.853   1.419   6.415
    4TRP    CD2 8177   6.932   1.215   6.398
    4TRP      C 8178   6.713   1.236   6.850
    4TRP      O 8179   6.660   1.344   6.877
    5PRO      N 8180   6.763   1.157   6.944
    5PRO     CD 8181   6.786   1.018   6.918
    5PRO    HD2 8182   6.891   0.998   6.899
    5PRO    HD3 8183   6.726   0.973   6.836
    5PRO     CG 8184   6.747   0.948   7.052
    5PRO    HG2 8185   6.796   0.852   7.065
    5PRO    HG3 8186   6.639   0.930   7.051
    5PRO     CB 8187   6.795   1.049   7.153
    5PRO    HB2 8188   6.904   1.048   7.162
    5PRO    HB3 8189   6.737   1.031   7.243
    5PRO     CA 8190   6.758   1.181   7.087
    5PRO     HA 8191   6.654   1.203   7.113
    5PRO      C 8192   6.846   1.297   7.136
    5PRO      O 8193   6.935   1.330   7.053
    6TRP      N 8194   6.849   1.344   7.260
    6TRP      H 8195   6.767   1.313   7.311
    6TRP     CA 8196   6.948   1.444   7.317
    6TRP     HA 8197   6.970   1.522   7.244
    6TRP     CB 8198   6.876   1.514   7.439
    6TRP    HB2 8199   6.838   1.435   7.505
    6TRP    HB3 8200   6.940   1.576   7.502
    6TRP     CG 8201   6.764   1.613   7.406
    6TRP    CD1 8202   6.631   1.584   7.403
    6TRP    HD1 8203   6.597   1.486   7.437
    6TRP    NE1 8204   6.549   1.690   7.356
    6TRP    HE1 8205   6.451   1.676   7.341
    6TRP    CE2 8206   6.633   1.786   7.308
    6TRP    CZ2 8207   6.612   1.908   7.242
    6TRP    HZ2 8208   6.514   1.932   7.204
    6TRP    CH2 8209   6.714   1.996   7.213
    6TRP    HH2 8210   6.686   2.083   7.157
    6TRP    CZ3 8211   6.848   1.968   7.241
    6TRP    HZ3 8212   6.929   2.034   7.212
    6TRP    CE3 8213   6.873   1.841   7.304
    6TRP    HE3 8214   6.974   1.815   7.332
    6TRP    CD2 8215   6.767   1.749   7.343
    6TRP      C 8216   7.078   1.389   7.356
    6TRP      O 8217   7.174   1.464   7.384
    7TRP      N 8218   7.089   1.254   7.360
    7TRP      H 8219   7.005   1.205   7.336
    7TRP     CA 8220   7.206   1.182   7.413
    7TRP     HA 8221   7.230   1.229   7.508
    7TRP     CB 8222   7.170   1.034   7.429
    7TRP    HB2 8223   7.202   0.979   7.341
    7TRP    HB3 8224   7.236   0.995   7.505
    7TRP     CG 8225   7.033   0.986   7.475
    7TRP    CD1 8226   6.981   0.861   7.461
    7TRP    HD1 8227   7.035   0.780   7.413
    7TRP    NE1 8228   6.856   0.845   7.511
    7TRP    HE1 8229   6.807   0.757   7.496
    7TRP    CE2 8230   6.819   0.964   7.574
    7TRP    CZ2 8231   6.705   0.993   7.646
    7TRP    HZ2 8232   6.628   0.917   7.656
    7TRP    CH2 8233   6.686   1.122   7.696
    7TRP    HH2 8234   6.597   1.141   7.755
    7TRP    CZ3 8235   6.786   1.219   7.676
    7TRP    HZ3 8236   6.769   1.322   7.708
    7TRP    CE3 8237   6.910   1.179   7.617
    7TRP    HE3 8238   6.996   1.243   7.620
    7TRP    CD2 8239   6.929   1.051   7.555
    7TRP      C 8240   7.321   1.206   7.319
    7TRP      O 8241   7.298   1.208   7.198
    8PRO      N 8242   7.450   1.206   7.363
    8PRO     CD 8243   7.498   1.173   7.496
    8PRO    HD2 8244   7.460   1.076   7.529
    8PRO    HD3 8245   7.468   1.254   7.563
    8PRO     CG 8246   7.648   1.157   7.480
    8PRO    HG2 8247   7.672   1.051   7.470
    8PRO    HG3 8248   7.699   1.191   7.569
    8PRO     CB 8249   7.685   1.242   7.356
    8PRO    HB2 8250   7.765   1.193   7.301
    8PRO    HB3 8251   7.698   1.347   7.385
    8PRO     CA 8252   7.561   1.236   7.270
    8PRO     HA 8253   7.552   1.335   7.227
    8PRO      C 8254   7.580   1.134   7.160
    8PRO      O 8255   7.611   1.014   7.189
    9TRP      N 8256   7.561   1.182   7.034
    9TRP      H 8257   7.531   1.276   7.023
    9TRP     CA 8258   7.586   1.107   6.909
    9TRP     HA 8259   7.664   1.031   6.921
    9TRP     CB 8260   7.449   1.044   6.866
    9TRP    HB2 8261   7.380   1.127   6.871
    9TRP    HB3 8262   7.462   1.009   6.763
    9TRP     CG 8263   7.388   0.936   6.959
    9TRP    CD1 8264   7.270   0.932   7.027
    9TRP    HD1 8265   7.191   1.003   7.021
    9TRP    NE1 8266   7.256   0.816   7.103
    9TRP    HE1 8267   7.177   0.787   7.160
    9TRP    CE2 8268   7.374   0.744   7.104
    9TRP    CZ2 8269   7.418   0.622   7.160
    9TRP    HZ2 8270   7.353   0.567   7.226
    9TRP    CH2 8271   7.535   0.564   7.116
    9TRP    HH2 8272   7.557   0.467   7.158
    9TRP    CZ3 8273   7.616   0.633   7.023
    9TRP    HZ3 8274   7.708   0.584   6.997
    9TRP    CE3 8275   7.576   0.758   6.969
    9TRP    HE3 8276   7.635   0.802   6.890
    9TRP    CD2 8277   7.456   0.816   7.012
    9TRP      C 8278   7.636   1.202   6.800
    9TRP      O 8279   7.569   1.295   6.761
   10ARG      N 8280   7.754   1.175   6.747
   10ARG      H 8281   7.811   1.108   6.799
   10ARG     CA 8282   7.808   1.244   6.637
   10ARG     HA 8283   7.788   1.349   6.649
   10ARG     CB 8284   7.956   1.212   6.631
   10ARG    HB2 8285   7.972   1.104   6.622
   10ARG    HB3 8286   7.989   1.250   6.534
   10ARG     CG 8287   8.043   1.265   6.743
   10ARG    HG2 8288   8.025   1.374   6.738
   10ARG    HG3 8289   8.007   1.243   6.843
   10ARG     CD 8290   8.196   1.229   6.725
   10ARG    HD2 8291   8.256   1.286   6.795
   10ARG    HD3 8292   8.212   1.120   6.731
   10ARG     NE 8293   8.246   1.282   6.595
   10ARG     HE 8294   8.245   1.382   6.586
   10ARG     CZ 8295   8.276   1.205   6.488
   10ARG    NH1 8296   8.225   1.085   6.477
   10ARG   HH11 8297   8.146   1.050   6.530
   10ARG   HH12 8298   8.264   1.028   6.403
   10ARG    NH2 8299   8.358   1.249   6.394
   10ARG   HH21 8300   8.417   1.329   6.403
   10ARG   HH22 8301   8.371   1.188   6.315
   10ARG      C 8302   7.740   1.198   6.508
   10ARG      O 8303   7.708   1.079   6.490
   11ARG      N 8304   7.711   1.286   6.411
   11ARG      H 8305   7.737   1.381   6.433
   11ARG     CA 8306   7.653   1.265   6.278
   11ARG     HA 8307   7.700   1.171   6.247
   11ARG     CB 8308   7.494   1.243   6.281
   11ARG    HB2 8309   7.455   1.247   6.179
   11ARG    HB3 8310   7.470   1.147   6.327
   11ARG     CG 8311   7.420   1.357   6.355
   11ARG    HG2 8312   7.466   1.366   6.453
   11ARG    HG3 8313   7.441   1.453   6.306
   11ARG     CD 8314   7.264   1.328   6.378
   11ARG    HD2 8315   7.223   1.355   6.282
   11ARG    HD3 8316   7.251   1.224   6.407
   11ARG     NE 8317   7.211   1.424   6.478
   11ARG     HE 8318   7.210   1.525   6.464
   11ARG     CZ 8319   7.185   1.393   6.603
   11ARG    NH1 8320   7.204   1.281   6.669
   11ARG   HH11 8321   7.238   1.195   6.626
   11ARG   HH12 8322   7.201   1.283   6.769
   11ARG    NH2 8323   7.139   1.487   6.680
   11ARG   HH21 8324   7.144   1.581   6.645
   11ARG   HH22 8325   7.084   1.469   6.763
   11ARG      C 8326   7.700   1.373   6.183
   11ARG      O 8327   7.712   1.487   6.233
   12LYS      N 8328   7.707   1.349   6.052
   12LYS      H 8329   7.693   1.252   6.029
   12LYS     CA 8330   7.737   1.449   5.947
   12LYS     HA 8331   7.842   1.467   5.968
   12LYS     CB 8332   7.716   1.377   5.811
   12LYS    HB2 8333   7.746   1.273   5.813
   12LYS    HB3 8334   7.609   1.368   5.794
   12LYS     CG 8335   7.786   1.432   5.692
   12LYS    HG2 8336   7.767   1.538   5.682
   12LYS    HG3 8337   7.894   1.411   5.702
   12LYS     CD 8338   7.743   1.366   5.567
   12LYS    HD2 8339   7.770   1.261   5.568
   12LYS    HD3 8340   7.636   1.379   5.552
   12LYS     CE 8341   7.813   1.444   5.448
   12LYS    HE2 8342   7.791   1.550   5.457
   12LYS    HE3 8343   7.922   1.443   5.442
   12LYS     NZ 8344   7.761   1.401   5.315
   12LYS    HZ1 8345   7.798   1.314   5.281
   12LYS    HZ2 8346   7.661   1.399   5.308
   12LYS    HZ3 8347   7.800   1.469   5.250
   12LYS      C 8348   7.671   1.587   5.951
   12LYS      O 8349   7.554   1.596   5.978
   13NHE      N 8350   7.754   1.684   5.905
   13NHE    HN1 8351   7.852   1.668   5.884
   13NHE    HN2 8352   7.723   1.779   5.891
    1ILE      N 8353   2.653   7.155   1.879
    1ILE     H1 8354   2.645   7.057   1.900
    1ILE     H2 8355   2.733   7.203   1.919
    1ILE     H3 8356   2.676   7.146   1.781
    1ILE     CA 8357   2.534   7.241   1.881
    1ILE     HA 8358   2.556   7.328   1.821
    1ILE     CB 8359   2.408   7.163   1.822
    1ILE     HB 8360   2.423   7.109   1.729
    1ILE    CG2 8361   2.372   7.059   1.930
    1ILE   HG21 8362   2.294   7.095   1.996
    1ILE   HG22 8363   2.339   6.963   1.889
    1ILE   HG23 8364   2.457   7.036   1.993
    1ILE    CG1 8365   2.290   7.255   1.778
    1ILE   HG12 8366   2.327   7.343   1.724
    1ILE   HG13 8367   2.235   7.288   1.866
    1ILE    CD1 8368   2.190   7.185   1.684
    1ILE   HD11 8369   2.139   7.103   1.731
    1ILE   HD12 8370   2.107   7.253   1.668
    1ILE   HD13 8371   2.229   7.152   1.587
    1ILE      C 8372   2.513   7.304   2.017
    1ILE      O 8373   2.545   7.240   2.116
    2LEU      N 8374   2.461   7.427   2.021
    2LEU      H 8375   2.436   7.467   1.932
    2LEU     CA 8376   2.400   7.484   2.142
    2LEU     HA 8377   2.414   7.422   2.231
    2LEU     CB 8378   2.467   7.614   2.182
    2LEU    HB2 8379   2.417   7.693   2.125
    2LEU    HB3 8380   2.448   7.634   2.287
    2LEU     CG 8381   2.617   7.631   2.158
    2LEU     HG 8382   2.647   7.630   2.053
    2LEU    CD1 8383   2.658   7.780   2.196
    2LEU   HD11 8384   2.632   7.843   2.111
    2LEU   HD12 8385   2.604   7.811   2.285
    2LEU   HD13 8386   2.763   7.795   2.221
    2LEU    CD2 8387   2.698   7.539   2.241
    2LEU   HD21 8388   2.652   7.539   2.340
    2LEU   HD22 8389   2.680   7.438   2.205
    2LEU   HD23 8390   2.805   7.559   2.245
    2LEU      C 8391   2.248   7.507   2.129
    2LEU      O 8392   2.192   7.522   2.019
    3ARG      N 8393   2.180   7.493   2.241
    3ARG      H 8394   2.232   7.476   2.326
    3ARG     CA 8395   2.032   7.495   2.250
    3ARG     HA 8396   1.992   7.533   2.155
    3ARG     CB 8397   1.969   7.353   2.267
    3ARG    HB2 8398   1.863   7.363   2.246
    3ARG    HB3 8399   2.009   7.295   2.184
    3ARG     CG 8400   1.991   7.276   2.401
    3ARG    HG2 8401   2.095   7.266   2.428
    3ARG    HG3 8402   1.936   7.326   2.481
    3ARG     CD 8403   1.932   7.135   2.404
    3ARG    HD2 8404   1.912   7.111   2.509
    3ARG    HD3 8405   1.830   7.139   2.364
    3ARG     NE 8406   2.013   7.033   2.346
    3ARG     HE 8407   2.083   6.997   2.408
    3ARG     CZ 8408   1.992   6.973   2.228
    3ARG    NH1 8409   1.879   6.984   2.161
    3ARG   HH11 8410   1.817   7.062   2.174
    3ARG   HH12 8411   1.859   6.934   2.077
    3ARG    NH2 8412   2.091   6.890   2.185
    3ARG   HH21 8413   2.172   6.870   2.240
    3ARG   HH22 8414   2.072   6.837   2.101
    3ARG      C 8415   1.980   7.584   2.362
    3ARG      O 8416   2.052   7.617   2.455
    4TRP      N 8417   1.863   7.642   2.339
    4TRP      H 8418   1.805   7.611   2.263
    4TRP     CA 8419   1.806   7.748   2.427
    4TRP     HA 8420   1.854   7.744   2.525
    4TRP     CB 8421   1.840   7.887   2.360
    4TRP    HB2 8422   1.824   7.884   2.252
    4TRP    HB3 8423   1.790   7.970   2.410
    4TRP     CG 8424   1.985   7.925   2.368
    4TRP    CD1 8425   2.046   7.976   2.476
    4TRP    HD1 8426   2.001   7.996   2.573
    4TRP    NE1 8427   2.173   8.011   2.443
    4TRP    HE1 8428   2.238   8.046   2.513
    4TRP    CE2 8429   2.202   7.982   2.313
    4TRP    CZ2 8430   2.315   7.992   2.231
    4TRP    HZ2 8431   2.411   8.035   2.257
    4TRP    CH2 8432   2.309   7.939   2.102
    4TRP    HH2 8433   2.390   7.946   2.032
    4TRP    CZ3 8434   2.203   7.858   2.062
    4TRP    HZ3 8435   2.205   7.821   1.960
    4TRP    CE3 8436   2.085   7.844   2.140
    4TRP    HE3 8437   2.000   7.784   2.106
    4TRP    CD2 8438   2.082   7.909   2.267
    4TRP      C 8439   1.644   7.732   2.442
    4TRP      O 8440   1.585   7.657   2.365
    5PRO      N 8441   1.581   7.808   2.530
    5PRO     CD 8442   1.650   7.863   2.644
    5PRO    HD2 8443   1.675   7.967   2.629
    5PRO    HD3 8444   1.741   7.808   2.676
    5PRO     CG 8445   1.545   7.854   2.759
    5PRO    HG2 8446   1.563   7.926   2.839
    5PRO    HG3 8447   1.550   7.754   2.803
    5PRO     CB 8448   1.417   7.884   2.685
    5PRO    HB2 8449   1.409   7.991   2.660
    5PRO    HB3 8450   1.337   7.840   2.744
    5PRO     CA 8451   1.438   7.810   2.554
    5PRO     HA 8452   1.405   7.707   2.568
    5PRO      C 8453   1.355   7.872   2.439
    5PRO      O 8454   1.424   7.941   2.361
    6TRP      N 8455   1.222   7.874   2.433
    6TRP      H 8456   1.184   7.806   2.498
    6TRP     CA 8457   1.137   7.950   2.333
    6TRP     HA 8458   1.182   7.945   2.234
    6TRP     CB 8459   0.999   7.874   2.325
    6TRP    HB2 8460   0.961   7.862   2.427
    6TRP    HB3 8461   0.920   7.926   2.270
    6TRP     CG 8462   0.998   7.738   2.253
    6TRP    CD1 8463   1.009   7.617   2.313
    6TRP    HD1 8464   1.008   7.611   2.422
    6TRP    NE1 8465   1.020   7.508   2.223
    6TRP    HE1 8466   1.038   7.415   2.257
    6TRP    CE2 8467   1.035   7.561   2.099
    6TRP    CZ2 8468   1.059   7.505   1.973
    6TRP    HZ2 8469   1.087   7.401   1.964
    6TRP    CH2 8470   1.059   7.579   1.856
    6TRP    HH2 8471   1.085   7.526   1.766
    6TRP    CZ3 8472   1.043   7.719   1.856
    6TRP    HZ3 8473   1.050   7.778   1.766
    6TRP    CE3 8474   1.023   7.779   1.985
    6TRP    HE3 8475   1.006   7.885   1.991
    6TRP    CD2 8476   1.015   7.703   2.108
    6TRP      C 8477   1.118   8.093   2.362
    6TRP      O 8478   1.069   8.169   2.276
    7TRP      N 8479   1.158   8.137   2.484
    7TRP      H 8480   1.196   8.065   2.543
    7TRP     CA 8481   1.131   8.271   2.535
    7TRP     HA 8482   1.026   8.292   2.514
    7TRP     CB 8483   1.163   8.274   2.685
    7TRP    HB2 8484   1.263   8.311   2.701
    7TRP    HB3 8485   1.103   8.355   2.726
    7TRP     CG 8486   1.133   8.158   2.778
    7TRP    CD1 8487   1.186   8.137   2.902
    7TRP    HD1 8488   1.257   8.205   2.948
    7TRP    NE1 8489   1.142   8.025   2.965
    7TRP    HE1 8490   1.184   7.998   3.054
    7TRP    CE2 8491   1.045   7.966   2.885
    7TRP    CZ2 8492   0.967   7.854   2.909
    7TRP    HZ2 8493   0.981   7.800   3.002
    7TRP    CH2 8494   0.878   7.809   2.811
    7TRP    HH2 8495   0.815   7.724   2.835
    7TRP    CZ3 8496   0.867   7.880   2.691
    7TRP    HZ3 8497   0.804   7.842   2.611
    7TRP    CE3 8498   0.936   8.004   2.677
    7TRP    HE3 8499   0.914   8.072   2.597
    7TRP    CD2 8500   1.036   8.048   2.770
    7TRP      C 8501   1.213   8.368   2.455
    7TRP      O 8502   1.327   8.335   2.422
    8PRO      N 8503   1.172   8.496   2.435
    8PRO     CD 8504   1.057   8.563   2.493
    8PRO    HD2 8505   1.056   8.553   2.602
    8PRO    HD3 8506   0.968   8.520   2.447
    8PRO     CG 8507   1.079   8.710   2.463
    8PRO    HG2 8508   1.122   8.759   2.551
    8PRO    HG3 8509   0.984   8.759   2.446
    8PRO     CB 8510   1.170   8.714   2.338
    8PRO    HB2 8511   1.238   8.799   2.345
    8PRO    HB3 8512   1.108   8.704   2.247
    8PRO     CA 8513   1.252   8.588   2.350
    8PRO     HA 8514   1.261   8.552   2.248
    8PRO      C 8515   1.389   8.622   2.405
    8PRO      O 8516   1.400   8.684   2.515
    9TRP      N 8517   1.492   8.580   2.328
    9TRP      H 8518   1.474   8.528   2.246
    9TRP     CA 8519   1.635   8.612   2.352
    9TRP     HA 8520   1.649   8.707   2.405
    9TRP     CB 8521   1.695   8.492   2.432
    9TRP    HB2 8522   1.664   8.405   2.375
    9TRP    HB3 8523   1.804   8.503   2.429
    9TRP     CG 8524   1.641   8.467   2.575
    9TRP    CD1 8525   1.577   8.360   2.630
    9TRP    HD1 8526   1.559   8.266   2.584
    9TRP    NE1 8527   1.541   8.382   2.763
    9TRP    HE1 8528   1.496   8.318   2.828
    9TRP    CE2 8529   1.564   8.514   2.799
    9TRP    CZ2 8530   1.549   8.591   2.916
    9TRP    HZ2 8531   1.504   8.547   3.004
    9TRP    CH2 8532   1.610   8.714   2.925
    9TRP    HH2 8533   1.602   8.763   3.021
    9TRP    CZ3 8534   1.677   8.767   2.813
    9TRP    HZ3 8535   1.718   8.866   2.826
    9TRP    CE3 8536   1.689   8.693   2.692
    9TRP    HE3 8537   1.750   8.733   2.612
    9TRP    CD2 8538   1.629   8.567   2.683
    9TRP      C 8539   1.709   8.627   2.218
    9TRP      O 8540   1.716   8.537   2.138
   10ARG      N 8541   1.769   8.743   2.197
   10ARG      H 8542   1.741   8.820   2.258
   10ARG     CA 8543   1.851   8.769   2.086
   10ARG     HA 8544   1.806   8.724   1.998
   10ARG     CB 8545   1.868   8.919   2.075
   10ARG    HB2 8546   1.911   8.960   2.167
   10ARG    HB3 8547   1.948   8.933   2.001
   10ARG     CG 8548   1.746   9.000   2.037
   10ARG    HG2 8549   1.716   8.956   1.941
   10ARG    HG3 8550   1.658   8.980   2.097
   10ARG     CD 8551   1.775   9.155   2.025
   10ARG    HD2 8552   1.692   9.205   1.979
   10ARG    HD3 8553   1.805   9.197   2.122
   10ARG     NE 8554   1.882   9.179   1.924
   10ARG     HE 8555   1.859   9.152   1.830
   10ARG     CZ 8556   2.008   9.217   1.954
   10ARG    NH1 8557   2.056   9.196   2.074
   10ARG   HH11 8558   2.016   9.133   2.143
   10ARG   HH12 8559   2.145   9.241   2.094
   10ARG    NH2 8560   2.084   9.277   1.864
   10ARG   HH21 8561   2.051   9.316   1.778
   10ARG   HH22 8562   2.179   9.297   1.893
   10ARG      C 8563   1.988   8.703   2.107
   10ARG      O 8564   2.042   8.700   2.218
   11ARG      N 8565   2.052   8.645   2.003
   11ARG      H 8566   2.001   8.649   1.916
   11ARG     CA 8567   2.184   8.582   1.997
   11ARG     HA 8568   2.244   8.648   2.062
   11ARG     CB 8569   2.187   8.434   2.060
   11ARG    HB2 8570   2.283   8.386   2.035
   11ARG    HB3 8571   2.174   8.439   2.168
   11ARG     CG 8572   2.081   8.342   1.997
   11ARG    HG2 8573   1.985   8.393   2.007
   11ARG    HG3 8574   2.097   8.334   1.889
   11ARG     CD 8575   2.067   8.200   2.071
   11ARG    HD2 8576   2.149   8.145   2.028
   11ARG    HD3 8577   2.072   8.216   2.179
   11ARG     NE 8578   1.941   8.134   2.028
   11ARG     HE 8579   1.922   8.107   1.931
   11ARG     CZ 8580   1.833   8.128   2.101
   11ARG    NH1 8581   1.805   8.180   2.219
   11ARG   HH11 8582   1.873   8.229   2.276
   11ARG   HH12 8583   1.710   8.185   2.248
   11ARG    NH2 8584   1.729   8.067   2.050
   11ARG   HH21 8585   1.733   8.046   1.952
   11ARG   HH22 8586   1.656   8.026   2.106
   11ARG      C 8587   2.240   8.593   1.857
   11ARG      O 8588   2.157   8.581   1.765
   12LYS      N 8589   2.372   8.594   1.838
   12LYS      H 8590   2.425   8.602   1.923
   12LYS     CA 8591   2.440   8.589   1.706
   12LYS     HA 8592   2.415   8.687   1.669
   12LYS     CB 8593   2.592   8.574   1.736
   12LYS    HB2 8594   2.623   8.629   1.824
   12LYS    HB3 8595   2.611   8.472   1.767
   12LYS     CG 8596   2.688   8.618   1.632
   12LYS    HG2 8597   2.664   8.573   1.536
   12LYS    HG3 8598   2.686   8.728   1.626
   12LYS     CD 8599   2.827   8.581   1.665
   12LYS    HD2 8600   2.860   8.633   1.755
   12LYS    HD3 8601   2.836   8.473   1.676
   12LYS     CE 8602   2.916   8.620   1.539
   12LYS    HE2 8603   2.874   8.573   1.450
   12LYS    HE3 8604   2.923   8.725   1.510
   12LYS     NZ 8605   3.055   8.568   1.551
   12LYS    HZ1 8606   3.116   8.622   1.611
   12LYS    HZ2 8607   3.062   8.471   1.577
   12LYS    HZ3 8608   3.096   8.583   1.459
   12LYS      C 8609   2.392   8.492   1.598
   12LYS      O 8610   2.364   8.379   1.629
   13NHE      N 8611   2.406   8.545   1.474
   13NHE    HN1 8612   2.432   8.641   1.457
   13NHE    HN2 8613   2.389   8.490   1.390
    1ILE      N 8614   9.881   8.010   2.449
    1ILE     H1 8615   9.939   8.048   2.376
    1ILE     H2 8616   9.926   7.992   2.538
    1ILE     H3 8617   9.824   8.092   2.465
    1ILE     CA 8618   9.784   7.903   2.417
    1ILE     HA 8619   9.709   7.904   2.495
    1ILE     CB 8620   9.718   7.929   2.275
    1ILE     HB 8621   9.682   8.030   2.255
    1ILE    CG2 8622   9.830   7.900   2.173
    1ILE   HG21 8623   9.824   7.798   2.136
    1ILE   HG22 8624   9.829   7.967   2.087
    1ILE   HG23 8625   9.928   7.910   2.218
    1ILE    CG1 8626   9.585   7.851   2.251
    1ILE   HG12 8627   9.522   7.854   2.340
    1ILE   HG13 8628   9.608   7.748   2.227
    1ILE    CD1 8629   9.501   7.908   2.135
    1ILE   HD11 8630   9.551   7.899   2.039
    1ILE   HD12 8631   9.417   7.841   2.120
    1ILE   HD13 8632   9.464   8.010   2.147
    1ILE      C 8633   9.845   7.766   2.437
    1ILE      O 8634   9.964   7.752   2.413
    2LEU      N 8635   9.765   7.669   2.480
    2LEU      H 8636   9.668   7.693   2.493
    2LEU     CA 8637   9.797   7.526   2.467
    2LEU     HA 8638   9.900   7.508   2.430
    2LEU     CB 8639   9.797   7.455   2.601
    2LEU    HB2 8640   9.694   7.425   2.619
    2LEU    HB3 8641   9.857   7.365   2.594
    2LEU     CG 8642   9.843   7.532   2.724
    2LEU     HG 8643   9.781   7.617   2.751
    2LEU    CD1 8644   9.820   7.440   2.852
    2LEU   HD11 8645   9.715   7.449   2.879
    2LEU   HD12 8646   9.845   7.337   2.828
    2LEU   HD13 8647   9.882   7.464   2.939
    2LEU    CD2 8648   9.987   7.567   2.719
    2LEU   HD21 8649  10.038   7.479   2.680
    2LEU   HD22 8650  10.000   7.641   2.640
    2LEU   HD23 8651  10.032   7.602   2.811
    2LEU      C 8652   9.705   7.451   2.369
    2LEU      O 8653   9.589   7.489   2.343
    3ARG      N 8654   9.761   7.352   2.303
    3ARG      H 8655   9.857   7.329   2.326
    3ARG     CA 8656   9.697   7.275   2.193
    3ARG     HA 8657   9.590   7.299   2.194
    3ARG     CB 8658   9.747   7.316   2.051
    3ARG    HB2 8659   9.675   7.275   1.981
    3ARG    HB3 8660   9.732   7.424   2.047
    3ARG     CG 8661   9.893   7.280   2.009
    3ARG    HG2 8662   9.967   7.316   2.079
    3ARG    HG3 8663   9.901   7.172   1.997
    3ARG     CD 8664   9.933   7.332   1.872
    3ARG    HD2 8665  10.013   7.266   1.835
    3ARG    HD3 8666   9.854   7.309   1.800
    3ARG     NE 8667   9.978   7.467   1.867
    3ARG     HE 8668  10.074   7.479   1.891
    3ARG     CZ 8669   9.909   7.572   1.818
    3ARG    NH1 8670   9.800   7.558   1.745
    3ARG   HH11 8671   9.744   7.475   1.750
    3ARG   HH12 8672   9.753   7.634   1.701
    3ARG    NH2 8673   9.964   7.694   1.838
    3ARG   HH21 8674  10.053   7.707   1.882
    3ARG   HH22 8675   9.918   7.773   1.793
    3ARG      C 8676   9.712   7.125   2.208
    3ARG      O 8677   9.800   7.076   2.279
    4TRP      N 8678   9.611   7.052   2.161
    4TRP      H 8679   9.542   7.094   2.101
    4TRP     CA 8680   9.599   6.905   2.184
    4TRP     HA 8681   9.696   6.864   2.213
    4TRP     CB 8682   9.500   6.886   2.307
    4TRP    HB2 8683   9.414   6.953   2.298
    4TRP    HB3 8684   9.474   6.781   2.321
    4TRP     CG 8685   9.557   6.927   2.439
    4TRP    CD1 8686   9.641   6.853   2.512
    4TRP    HD1 8687   9.682   6.756   2.487
    4TRP    NE1 8688   9.661   6.915   2.632
    4TRP    HE1 8689   9.727   6.878   2.700
    4TRP    CE2 8690   9.593   7.033   2.641
    4TRP    CZ2 8691   9.581   7.134   2.736
    4TRP    HZ2 8692   9.626   7.137   2.835
    4TRP    CH2 8693   9.509   7.248   2.703
    4TRP    HH2 8694   9.492   7.329   2.772
    4TRP    CZ3 8695   9.467   7.273   2.573
    4TRP    HZ3 8696   9.410   7.364   2.555
    4TRP    CE3 8697   9.475   7.174   2.471
    4TRP    HE3 8698   9.438   7.191   2.370
    4TRP    CD2 8699   9.536   7.049   2.506
    4TRP      C 8700   9.541   6.829   2.053
    4TRP      O 8701   9.491   6.896   1.963
    5PRO      N 8702   9.539   6.696   2.052
    5PRO     CD 8703   9.630   6.621   2.134
    5PRO    HD2 8704   9.582   6.582   2.223
    5PRO    HD3 8705   9.723   6.673   2.163
    5PRO     CG 8706   9.669   6.500   2.043
    5PRO    HG2 8707   9.702   6.413   2.100
    5PRO    HG3 8708   9.752   6.530   1.978
    5PRO     CB 8709   9.539   6.473   1.972
    5PRO    HB2 8710   9.466   6.424   2.039
    5PRO    HB3 8711   9.565   6.421   1.880
    5PRO     CA 8712   9.487   6.613   1.945
    5PRO     HA 8713   9.531   6.647   1.852
    5PRO      C 8714   9.334   6.615   1.930
    5PRO      O 8715   9.275   6.661   2.033
    6TRP      N 8716   9.265   6.557   1.834
    6TRP      H 8717   9.327   6.534   1.756
    6TRP     CA 8718   9.114   6.540   1.826
    6TRP     HA 8719   9.064   6.631   1.862
    6TRP     CB 8720   9.078   6.525   1.673
    6TRP    HB2 8721   9.140   6.445   1.632
    6TRP    HB3 8722   8.975   6.495   1.652
    6TRP     CG 8723   9.089   6.651   1.586
    6TRP    CD1 8724   9.197   6.685   1.510
    6TRP    HD1 8725   9.279   6.615   1.499
    6TRP    NE1 8726   9.187   6.814   1.451
    6TRP    HE1 8727   9.265   6.853   1.401
    6TRP    CE2 8728   9.077   6.873   1.504
    6TRP    CZ2 8729   9.022   7.002   1.491
    6TRP    HZ2 8730   9.078   7.080   1.443
    6TRP    CH2 8731   8.901   7.037   1.547
    6TRP    HH2 8732   8.872   7.141   1.535
    6TRP    CZ3 8733   8.826   6.950   1.628
    6TRP    HZ3 8734   8.735   6.980   1.677
    6TRP    CE3 8735   8.883   6.820   1.646
    6TRP    HE3 8736   8.829   6.746   1.704
    6TRP    CD2 8737   9.007   6.776   1.583
    6TRP      C 8738   9.058   6.430   1.906
    6TRP      O 8739   8.935   6.421   1.924
    7TRP      N 8740   9.146   6.341   1.958
    7TRP      H 8741   9.243   6.360   1.935
    7TRP     CA 8742   9.107   6.216   2.025
    7TRP     HA 8743   9.032   6.170   1.962
    7TRP     CB 8744   9.232   6.129   2.043
    7TRP    HB2 8745   9.274   6.144   2.141
    7TRP    HB3 8746   9.196   6.027   2.049
    7TRP     CG 8747   9.342   6.120   1.938
    7TRP    CD1 8748   9.468   6.073   1.957
    7TRP    HD1 8749   9.504   6.036   2.053
    7TRP    NE1 8750   9.548   6.075   1.847
    7TRP    HE1 8751   9.646   6.050   1.855
    7TRP    CE2 8752   9.470   6.117   1.739
    7TRP    CZ2 8753   9.504   6.128   1.605
    7TRP    HZ2 8754   9.605   6.104   1.575
    7TRP    CH2 8755   9.411   6.179   1.514
    7TRP    HH2 8756   9.439   6.183   1.409
    7TRP    CZ3 8757   9.282   6.214   1.560
    7TRP    HZ3 8758   9.211   6.260   1.492
    7TRP    CE3 8759   9.247   6.184   1.695
    7TRP    HE3 8760   9.144   6.188   1.727
    7TRP    CD2 8761   9.342   6.143   1.793
    7TRP      C 8762   9.042   6.253   2.155
    7TRP      O 8763   9.088   6.348   2.220
    8PRO      N 8764   8.946   6.174   2.211
    8PRO     CD 8765   8.902   6.043   2.166
    8PRO    HD2 8766   8.987   5.975   2.153
    8PRO    HD3 8767   8.846   6.057   2.074
    8PRO     CG 8768   8.821   5.988   2.282
    8PRO    HG2 8769   8.883   5.922   2.342
    8PRO    HG3 8770   8.740   5.927   2.245
    8PRO     CB 8771   8.770   6.113   2.359
    8PRO    HB2 8772   8.767   6.091   2.466
    8PRO    HB3 8773   8.678   6.151   2.311
    8PRO     CA 8774   8.878   6.216   2.336
    8PRO     HA 8775   8.824   6.309   2.324
    8PRO      C 8776   8.968   6.223   2.458
    8PRO      O 8777   9.025   6.118   2.501
    9TRP      N 8778   8.980   6.347   2.511
    9TRP      H 8779   8.936   6.424   2.466
    9TRP     CA 8780   9.051   6.379   2.637
    9TRP     HA 8781   9.052   6.296   2.708
    9TRP     CB 8782   9.196   6.422   2.597
    9TRP    HB2 8783   9.180   6.496   2.519
    9TRP    HB3 8784   9.241   6.469   2.686
    9TRP     CG 8785   9.288   6.315   2.533
    9TRP    CD1 8786   9.348   6.309   2.411
    9TRP    HD1 8787   9.351   6.387   2.337
    9TRP    NE1 8788   9.420   6.191   2.392
    9TRP    HE1 8789   9.476   6.164   2.313
    9TRP    CE2 8790   9.394   6.102   2.495
    9TRP    CZ2 8791   9.437   5.972   2.529
    9TRP    HZ2 8792   9.501   5.918   2.462
    9TRP    CH2 8793   9.414   5.924   2.656
    9TRP    HH2 8794   9.458   5.827   2.677
    9TRP    CZ3 8795   9.338   6.000   2.747
    9TRP    HZ3 8796   9.321   5.953   2.843
    9TRP    CE3 8797   9.289   6.129   2.713
    9TRP    HE3 8798   9.241   6.189   2.789
    9TRP    CD2 8799   9.314   6.180   2.585
    9TRP      C 8800   8.980   6.495   2.709
    9TRP      O 8801   8.968   6.604   2.658
   10ARG      N 8802   8.938   6.471   2.832
   10ARG      H 8803   8.934   6.372   2.859
   10ARG     CA 8804   8.883   6.569   2.916
   10ARG     HA 8805   8.818   6.632   2.858
   10ARG     CB 8806   8.812   6.497   3.030
   10ARG    HB2 8807   8.881   6.432   3.084
   10ARG    HB3 8808   8.789   6.576   3.102
   10ARG     CG 8809   8.688   6.419   2.994
   10ARG    HG2 8810   8.623   6.496   2.948
   10ARG    HG3 8811   8.699   6.350   2.912
   10ARG     CD 8812   8.619   6.352   3.120
   10ARG    HD2 8813   8.520   6.315   3.094
   10ARG    HD3 8814   8.684   6.276   3.165
   10ARG     NE 8815   8.584   6.457   3.221
   10ARG     HE 8816   8.515   6.524   3.190
   10ARG     CZ 8817   8.648   6.473   3.339
   10ARG    NH1 8818   8.770   6.426   3.354
   10ARG   HH11 8819   8.831   6.398   3.279
   10ARG   HH12 8820   8.805   6.429   3.448
   10ARG    NH2 8821   8.589   6.534   3.440
   10ARG   HH21 8822   8.491   6.554   3.445
   10ARG   HH22 8823   8.646   6.547   3.522
   10ARG      C 8824   8.995   6.656   2.973
   10ARG      O 8825   9.105   6.608   3.005
   11ARG      N 8826   8.977   6.789   2.987
   11ARG      H 8827   8.887   6.822   2.957
   11ARG     CA 8828   9.066   6.891   3.044
   11ARG     HA 8829   9.111   6.837   3.129
   11ARG     CB 8830   9.184   6.935   2.945
   11ARG    HB2 8831   9.234   7.024   2.985
   11ARG    HB3 8832   9.255   6.854   2.932
   11ARG     CG 8833   9.130   6.981   2.807
   11ARG    HG2 8834   9.068   6.901   2.770
   11ARG    HG3 8835   9.062   7.065   2.820
   11ARG     CD 8836   9.246   7.006   2.699
   11ARG    HD2 8837   9.280   7.105   2.725
   11ARG    HD3 8838   9.320   6.927   2.707
   11ARG     NE 8839   9.185   7.015   2.563
   11ARG     HE 8840   9.118   7.086   2.537
   11ARG     CZ 8841   9.191   6.919   2.475
   11ARG    NH1 8842   9.240   6.797   2.483
   11ARG   HH11 8843   9.291   6.762   2.563
   11ARG   HH12 8844   9.213   6.730   2.413
   11ARG    NH2 8845   9.133   6.939   2.360
   11ARG   HH21 8846   9.072   7.019   2.354
   11ARG   HH22 8847   9.158   6.891   2.275
   11ARG      C 8848   8.984   7.005   3.101
   11ARG      O 8849   8.881   7.035   3.036
   12LYS      N 8850   9.032   7.079   3.200
   12LYS      H 8851   9.116   7.042   3.241
   12LYS     CA 8852   8.970   7.202   3.255
   12LYS     HA 8853   8.883   7.159   3.303
   12LYS     CB 8854   9.072   7.261   3.356
   12LYS    HB2 8855   9.125   7.185   3.411
   12LYS    HB3 8856   9.152   7.308   3.300
   12LYS     CG 8857   9.019   7.351   3.463
   12LYS    HG2 8858   8.959   7.430   3.420
   12LYS    HG3 8859   8.962   7.291   3.535
   12LYS     CD 8860   9.128   7.415   3.540
   12LYS    HD2 8861   9.186   7.340   3.594
   12LYS    HD3 8862   9.192   7.474   3.474
   12LYS     CE 8863   9.059   7.519   3.638
   12LYS    HE2 8864   8.996   7.585   3.580
   12LYS    HE3 8865   8.991   7.481   3.714
   12LYS     NZ 8866   9.159   7.605   3.706
   12LYS    HZ1 8867   9.207   7.562   3.784
   12LYS    HZ2 8868   9.228   7.647   3.646
   12LYS    HZ3 8869   9.103   7.677   3.752
   12LYS      C 8870   8.913   7.308   3.160
   12LYS      O 8871   8.976   7.340   3.062
   13NHE      N 8872   8.803   7.368   3.212
   13NHE    HN1 8873   8.756   7.336   3.296
   13NHE    HN2 8874   8.759   7.447   3.168
    1ILE      N 8875   7.264   7.251   8.586
    1ILE     H1 8876   7.189   7.298   8.539
    1ILE     H2 8877   7.345   7.308   8.609
    1ILE     H3 8878   7.218   7.235   8.674
    1ILE     CA 8879   7.306   7.117   8.542
    1ILE     HA 8880   7.359   7.071   8.624
    1ILE     CB 8881   7.179   7.030   8.500
    1ILE     HB 8882   7.095   7.031   8.569
    1ILE    CG2 8883   7.130   7.092   8.368
    1ILE   HG21 8884   7.170   7.040   8.282
    1ILE   HG22 8885   7.021   7.094   8.358
    1ILE   HG23 8886   7.162   7.195   8.358
    1ILE    CG1 8887   7.205   6.877   8.495
    1ILE   HG12 8888   7.265   6.844   8.581
    1ILE   HG13 8889   7.258   6.852   8.404
    1ILE    CD1 8890   7.076   6.793   8.498
    1ILE   HD11 8891   7.013   6.809   8.411
    1ILE   HD12 8892   7.104   6.689   8.483
    1ILE   HD13 8893   7.014   6.802   8.588
    1ILE      C 8894   7.416   7.125   8.438
    1ILE      O 8895   7.415   7.218   8.360
    2LEU      N 8896   7.508   7.028   8.438
    2LEU      H 8897   7.495   6.954   8.506
    2LEU     CA 8898   7.595   7.000   8.323
    2LEU     HA 8899   7.587   7.075   8.243
    2LEU     CB 8900   7.742   7.009   8.361
    2LEU    HB2 8901   7.769   6.910   8.399
    2LEU    HB3 8902   7.801   7.026   8.271
    2LEU     CG 8903   7.785   7.110   8.466
    2LEU     HG 8904   7.745   7.094   8.565
    2LEU    CD1 8905   7.940   7.089   8.496
    2LEU   HD11 8906   7.947   7.005   8.566
    2LEU   HD12 8907   7.993   7.066   8.403
    2LEU   HD13 8908   7.993   7.175   8.537
    2LEU    CD2 8909   7.767   7.250   8.420
    2LEU   HD21 8910   7.800   7.252   8.316
    2LEU   HD22 8911   7.660   7.268   8.413
    2LEU   HD23 8912   7.815   7.327   8.479
    2LEU      C 8913   7.567   6.864   8.256
    2LEU      O 8914   7.515   6.769   8.318
    3ARG      N 8915   7.588   6.860   8.126
    3ARG      H 8916   7.627   6.942   8.083
    3ARG     CA 8917   7.554   6.745   8.039
    3ARG     HA 8918   7.532   6.659   8.103
    3ARG     CB 8919   7.424   6.768   7.955
    3ARG    HB2 8920   7.395   6.670   7.917
    3ARG    HB3 8921   7.348   6.794   8.028
    3ARG     CG 8922   7.426   6.873   7.839
    3ARG    HG2 8923   7.459   6.971   7.872
    3ARG    HG3 8924   7.490   6.837   7.759
    3ARG     CD 8925   7.292   6.893   7.770
    3ARG    HD2 8926   7.314   6.929   7.668
    3ARG    HD3 8927   7.249   6.795   7.747
    3ARG     NE 8928   7.201   6.982   7.833
    3ARG     HE 8929   7.217   7.078   7.813
    3ARG     CZ 8930   7.091   6.947   7.901
    3ARG    NH1 8931   7.039   6.826   7.897
    3ARG   HH11 8932   7.094   6.746   7.872
    3ARG   HH12 8933   6.953   6.801   7.940
    3ARG    NH2 8934   7.028   7.047   7.968
    3ARG   HH21 8935   7.057   7.143   7.963
    3ARG   HH22 8936   6.939   7.023   8.011
    3ARG      C 8937   7.666   6.707   7.945
    3ARG      O 8938   7.756   6.784   7.917
    4TRP      N 8939   7.674   6.577   7.914
    4TRP      H 8940   7.596   6.516   7.935
    4TRP     CA 8941   7.788   6.517   7.839
    4TRP     HA 8942   7.843   6.596   7.786
    4TRP     CB 8943   7.885   6.454   7.948
    4TRP    HB2 8944   7.828   6.400   8.024
    4TRP    HB3 8945   7.964   6.395   7.901
    4TRP     CG 8946   7.960   6.554   8.030
    4TRP    CD1 8947   8.069   6.620   7.990
    4TRP    HD1 8948   8.117   6.614   7.893
    4TRP    NE1 8949   8.117   6.693   8.094
    4TRP    HE1 8950   8.197   6.756   8.083
    4TRP    CE2 8951   8.041   6.679   8.206
    4TRP    CZ2 8952   8.043   6.731   8.336
    4TRP    HZ2 8953   8.117   6.798   8.378
    4TRP    CH2 8954   7.938   6.701   8.422
    4TRP    HH2 8955   7.934   6.735   8.524
    4TRP    CZ3 8956   7.822   6.639   8.376
    4TRP    HZ3 8957   7.744   6.617   8.449
    4TRP    CE3 8958   7.813   6.582   8.245
    4TRP    HE3 8959   7.724   6.529   8.211
    4TRP    CD2 8960   7.926   6.599   8.159
    4TRP      C 8961   7.738   6.402   7.735
    4TRP      O 8962   7.623   6.360   7.745
    5PRO      N 8963   7.825   6.351   7.650
    5PRO     CD 8964   7.942   6.425   7.611
    5PRO    HD2 8965   8.031   6.390   7.663
    5PRO    HD3 8966   7.935   6.535   7.621
    5PRO     CG 8967   7.958   6.390   7.460
    5PRO    HG2 8968   8.061   6.402   7.424
    5PRO    HG3 8969   7.895   6.459   7.401
    5PRO     CB 8970   7.915   6.246   7.457
    5PRO    HB2 8971   7.993   6.181   7.500
    5PRO    HB3 8972   7.884   6.226   7.355
    5PRO     CA 8973   7.799   6.245   7.554
    5PRO     HA 8974   7.709   6.273   7.498
    5PRO      C 8975   7.776   6.106   7.616
    5PRO      O 8976   7.818   6.098   7.735
    6TRP      N 8977   7.739   5.998   7.550
    6TRP      H 8978   7.701   6.024   7.459
    6TRP     CA 8979   7.735   5.855   7.603
    6TRP     HA 8980   7.698   5.854   7.705
    6TRP     CB 8981   7.630   5.777   7.514
    6TRP    HB2 8982   7.656   5.792   7.410
    6TRP    HB3 8983   7.627   5.669   7.529
    6TRP     CG 8984   7.482   5.812   7.537
    6TRP    CD1 8985   7.409   5.901   7.464
    6TRP    HD1 8986   7.453   5.945   7.374
    6TRP    NE1 8987   7.278   5.924   7.514
    6TRP    HE1 8988   7.220   5.995   7.473
    6TRP    CE2 8989   7.272   5.863   7.635
    6TRP    CZ2 8990   7.173   5.859   7.734
    6TRP    HZ2 8991   7.088   5.926   7.729
    6TRP    CH2 8992   7.182   5.779   7.846
    6TRP    HH2 8993   7.103   5.789   7.919
    6TRP    CZ3 8994   7.296   5.701   7.874
    6TRP    HZ3 8995   7.307   5.644   7.964
    6TRP    CE3 8996   7.400   5.708   7.775
    6TRP    HE3 8997   7.489   5.647   7.788
    6TRP    CD2 8998   7.390   5.785   7.652
    6TRP      C 8999   7.864   5.785   7.606
    6TRP      O 9000   7.876   5.677   7.667
    7TRP      N 9001   7.968   5.844   7.542
    7TRP      H 9002   7.944   5.931   7.496
    7TRP     CA 9003   8.098   5.780   7.520
    7TRP     HA 9004   8.078   5.679   7.485
    7TRP     CB 9005   8.178   5.863   7.419
    7TRP    HB2 9006   8.243   5.932   7.470
    7TRP    HB3 9007   8.248   5.794   7.374
    7TRP     CG 9008   8.114   5.930   7.298
    7TRP    CD1 9009   8.167   6.029   7.223
    7TRP    HD1 9010   8.264   6.073   7.242
    7TRP    NE1 9011   8.088   6.072   7.120
    7TRP    HE1 9012   8.117   6.152   7.065
    7TRP    CE2 9013   7.975   5.991   7.116
    7TRP    CZ2 9014   7.871   5.990   7.025
    7TRP    HZ2 9015   7.871   6.063   6.945
    7TRP    CH2 9016   7.763   5.902   7.043
    7TRP    HH2 9017   7.685   5.901   6.969
    7TRP    CZ3 9018   7.766   5.813   7.152
    7TRP    HZ3 9019   7.680   5.750   7.172
    7TRP    CE3 9020   7.884   5.805   7.233
    7TRP    HE3 9021   7.898   5.725   7.302
    7TRP    CD2 9022   7.990   5.900   7.224
    7TRP      C 9023   8.166   5.769   7.654
    7TRP      O 9024   8.154   5.862   7.734
    8PRO      N 9025   8.254   5.669   7.681
    8PRO     CD 9026   8.306   5.569   7.589
    8PRO    HD2 9027   8.347   5.616   7.499
    8PRO    HD3 9028   8.224   5.500   7.566
    8PRO     CG 9029   8.423   5.507   7.662
    8PRO    HG2 9030   8.516   5.553   7.628
    8PRO    HG3 9031   8.431   5.402   7.637
    8PRO     CB 9032   8.394   5.528   7.813
    8PRO    HB2 9033   8.487   5.546   7.866
    8PRO    HB3 9034   8.327   5.448   7.849
    8PRO     CA 9035   8.315   5.657   7.816
    8PRO     HA 9036   8.240   5.641   7.893
    8PRO      C 9037   8.406   5.772   7.855
    8PRO      O 9038   8.512   5.794   7.788
    9TRP      N 9039   8.363   5.843   7.962
    9TRP      H 9040   8.276   5.820   8.004
    9TRP     CA 9041   8.440   5.951   8.028
    9TRP     HA 9042   8.548   5.939   8.018
    9TRP     CB 9043   8.391   6.086   7.966
    9TRP    HB2 9044   8.283   6.079   7.972
    9TRP    HB3 9045   8.429   6.166   8.030
    9TRP     CG 9046   8.420   6.110   7.816
    9TRP    CD1 9047   8.338   6.130   7.709
    9TRP    HD1 9048   8.232   6.142   7.713
    9TRP    NE1 9049   8.407   6.144   7.590
    9TRP    HE1 9050   8.370   6.163   7.497
    9TRP    CE2 9051   8.541   6.115   7.607
    9TRP    CZ2 9052   8.656   6.113   7.526
    9TRP    HZ2 9053   8.647   6.132   7.420
    9TRP    CH2 9054   8.781   6.108   7.583
    9TRP    HH2 9055   8.864   6.116   7.514
    9TRP    CZ3 9056   8.793   6.093   7.723
    9TRP    HZ3 9057   8.894   6.085   7.760
    9TRP    CE3 9058   8.679   6.089   7.807
    9TRP    HE3 9059   8.692   6.088   7.914
    9TRP    CD2 9060   8.551   6.096   7.749
    9TRP      C 9061   8.412   5.950   8.180
    9TRP      O 9062   8.300   5.966   8.224
   10ARG      N 9063   8.516   5.935   8.259
   10ARG      H 9064   8.602   5.902   8.214
   10ARG     CA 9065   8.510   5.946   8.399
   10ARG     HA 9066   8.420   5.896   8.433
   10ARG     CB 9067   8.637   5.885   8.455
   10ARG    HB2 9068   8.725   5.936   8.416
   10ARG    HB3 9069   8.637   5.913   8.561
   10ARG     CG 9070   8.655   5.736   8.439
   10ARG    HG2 9071   8.566   5.695   8.489
   10ARG    HG3 9072   8.641   5.698   8.339
   10ARG     CD 9073   8.789   5.682   8.505
   10ARG    HD2 9074   8.788   5.574   8.510
   10ARG    HD3 9075   8.877   5.724   8.454
   10ARG     NE 9076   8.792   5.716   8.651
   10ARG     HE 9077   8.720   5.673   8.706
   10ARG     CZ 9078   8.872   5.810   8.704
   10ARG    NH1 9079   8.922   5.905   8.629
   10ARG   HH11 9080   8.889   5.930   8.536
   10ARG   HH12 9081   8.993   5.962   8.673
   10ARG    NH2 9082   8.902   5.808   8.833
   10ARG   HH21 9083   8.887   5.730   8.894
   10ARG   HH22 9084   8.958   5.885   8.867
   10ARG      C 9085   8.500   6.093   8.440
   10ARG      O 9086   8.563   6.181   8.379
   11ARG      N 9087   8.421   6.130   8.542
   11ARG      H 9088   8.371   6.054   8.585
   11ARG     CA 9089   8.401   6.262   8.603
   11ARG     HA 9090   8.503   6.304   8.600
   11ARG     CB 9091   8.306   6.358   8.516
   11ARG    HB2 9092   8.279   6.446   8.576
   11ARG    HB3 9093   8.355   6.387   8.424
   11ARG     CG 9094   8.170   6.291   8.485
   11ARG    HG2 9095   8.191   6.196   8.438
   11ARG    HG3 9096   8.118   6.265   8.578
   11ARG     CD 9097   8.079   6.375   8.382
   11ARG    HD2 9098   8.036   6.449   8.447
   11ARG    HD3 9099   8.143   6.414   8.302
   11ARG     NE 9100   7.970   6.289   8.331
   11ARG     HE 9101   7.898   6.249   8.391
   11ARG     CZ 9102   7.968   6.235   8.212
   11ARG    NH1 9103   8.059   6.235   8.117
   11ARG   HH11 9104   8.145   6.288   8.121
   11ARG   HH12 9105   8.050   6.168   8.043
   11ARG    NH2 9106   7.866   6.161   8.181
   11ARG   HH21 9107   7.804   6.135   8.256
   11ARG   HH22 9108   7.836   6.143   8.086
   11ARG      C 9109   8.362   6.247   8.748
   11ARG      O 9110   8.287   6.150   8.774
   12LYS      N 9111   8.389   6.343   8.835
   12LYS      H 9112   8.449   6.415   8.798
   12LYS     CA 9113   8.344   6.348   8.977
   12LYS     HA 9114   8.403   6.268   9.018
   12LYS     CB 9115   8.386   6.488   9.031
   12LYS    HB2 9116   8.481   6.521   8.992
   12LYS    HB3 9117   8.318   6.562   8.990
   12LYS     CG 9118   8.402   6.502   9.178
   12LYS    HG2 9119   8.313   6.467   9.230
   12LYS    HG3 9120   8.491   6.448   9.210
   12LYS     CD 9121   8.423   6.643   9.217
   12LYS    HD2 9122   8.517   6.680   9.176
   12LYS    HD3 9123   8.339   6.705   9.186
   12LYS     CE 9124   8.422   6.647   9.376
   12LYS    HE2 9125   8.331   6.600   9.412
   12LYS    HE3 9126   8.500   6.592   9.430
   12LYS     NZ 9127   8.422   6.785   9.429
   12LYS    HZ1 9128   8.511   6.832   9.428
   12LYS    HZ2 9129   8.353   6.847   9.387
   12LYS    HZ3 9130   8.404   6.775   9.528
   12LYS      C 9131   8.199   6.313   9.012
   12LYS      O 9132   8.109   6.355   8.943
   13NHE      N 9133   8.190   6.250   9.132
   13NHE    HN1 9134   8.272   6.219   9.184
   13NHE    HN2 9135   8.102   6.230   9.176
    1ILE      N 9136   4.130   4.792   6.906
    1ILE     H1 9137   4.093   4.885   6.896
    1ILE     H2 9138   4.122   4.751   6.999
    1ILE     H3 9139   4.062   4.743   6.851
    1ILE     CA 9140   4.259   4.757   6.846
    1ILE     HA 9141   4.263   4.649   6.837
    1ILE     CB 9142   4.274   4.826   6.703
    1ILE     HB 9143   4.189   4.818   6.636
    1ILE    CG2 9144   4.294   4.976   6.733
    1ILE   HG21 9145   4.400   5.002   6.736
    1ILE   HG22 9146   4.244   5.042   6.662
    1ILE   HG23 9147   4.254   5.002   6.830
    1ILE    CG1 9148   4.383   4.762   6.612
    1ILE   HG12 9149   4.380   4.653   6.617
    1ILE   HG13 9150   4.481   4.796   6.644
    1ILE    CD1 9151   4.367   4.799   6.463
    1ILE   HD11 9152   4.381   4.905   6.445
    1ILE   HD12 9153   4.453   4.759   6.410
    1ILE   HD13 9154   4.276   4.766   6.414
    1ILE      C 9155   4.374   4.782   6.942
    1ILE      O 9156   4.365   4.875   7.020
    2LEU      N 9157   4.478   4.698   6.935
    2LEU      H 9158   4.474   4.627   6.864
    2LEU     CA 9159   4.610   4.730   6.992
    2LEU     HA 9160   4.610   4.823   7.052
    2LEU     CB 9161   4.655   4.627   7.093
    2LEU    HB2 9162   4.704   4.548   7.036
    2LEU    HB3 9163   4.730   4.670   7.159
    2LEU     CG 9164   4.550   4.558   7.180
    2LEU     HG 9165   4.478   4.497   7.126
    2LEU    CD1 9166   4.622   4.445   7.266
    2LEU   HD11 9167   4.632   4.358   7.201
    2LEU   HD12 9168   4.719   4.481   7.299
    2LEU   HD13 9169   4.570   4.416   7.358
    2LEU    CD2 9170   4.485   4.652   7.274
    2LEU   HD21 9171   4.564   4.716   7.313
    2LEU   HD22 9172   4.425   4.721   7.215
    2LEU   HD23 9173   4.425   4.608   7.353
    2LEU      C 9174   4.720   4.749   6.885
    2LEU      O 9175   4.713   4.696   6.773
    3ARG      N 9176   4.813   4.837   6.915
    3ARG      H 9177   4.810   4.879   7.007
    3ARG     CA 9178   4.920   4.882   6.823
    3ARG     HA 9179   4.921   4.814   6.737
    3ARG     CB 9180   4.894   5.024   6.763
    3ARG    HB2 9181   4.961   5.035   6.679
    3ARG    HB3 9182   4.794   5.017   6.719
    3ARG     CG 9183   4.902   5.149   6.856
    3ARG    HG2 9184   4.839   5.140   6.944
    3ARG    HG3 9185   5.006   5.164   6.886
    3ARG     CD 9186   4.867   5.281   6.789
    3ARG    HD2 9187   4.919   5.360   6.845
    3ARG    HD3 9188   4.919   5.286   6.693
    3ARG     NE 9189   4.728   5.311   6.781
    3ARG     HE 9190   4.690   5.352   6.864
    3ARG     CZ 9191   4.652   5.306   6.671
    3ARG    NH1 9192   4.702   5.294   6.549
    3ARG   HH11 9193   4.793   5.256   6.534
    3ARG   HH12 9194   4.647   5.298   6.466
    3ARG    NH2 9195   4.519   5.323   6.690
    3ARG   HH21 9196   4.478   5.344   6.779
    3ARG   HH22 9197   4.461   5.328   6.605
    3ARG      C 9198   5.058   4.882   6.886
    3ARG      O 9199   5.073   4.882   7.008
    4TRP      N 9200   5.159   4.856   6.803
    4TRP      H 9201   5.144   4.859   6.703
    4TRP     CA 9202   5.298   4.831   6.849
    4TRP     HA 9203   5.311   4.871   6.951
    4TRP     CB 9204   5.318   4.674   6.854
    4TRP    HB2 9205   5.275   4.627   6.766
    4TRP    HB3 9206   5.422   4.647   6.873
    4TRP     CG 9207   5.244   4.606   6.965
    4TRP    CD1 9208   5.283   4.603   7.093
    4TRP    HD1 9209   5.371   4.649   7.136
    4TRP    NE1 9210   5.199   4.522   7.163
    4TRP    HE1 9211   5.207   4.510   7.264
    4TRP    CE2 9212   5.100   4.471   7.085
    4TRP    CZ2 9213   4.988   4.388   7.104
    4TRP    HZ2 9214   4.959   4.340   7.196
    4TRP    CH2 9215   4.901   4.367   6.998
    4TRP    HH2 9216   4.815   4.303   7.005
    4TRP    CZ3 9217   4.909   4.442   6.881
    4TRP    HZ3 9218   4.838   4.420   6.802
    4TRP    CE3 9219   5.020   4.528   6.854
    4TRP    HE3 9220   5.029   4.583   6.760
    4TRP    CD2 9221   5.120   4.540   6.956
    4TRP      C 9222   5.407   4.898   6.748
    4TRP      O 9223   5.370   4.936   6.638
    5PRO      N 9224   5.535   4.899   6.784
    5PRO     CD 9225   5.573   4.893   6.922
    5PRO    HD2 9226   5.606   4.794   6.951
    5PRO    HD3 9227   5.497   4.928   6.995
    5PRO     CG 9228   5.696   4.989   6.931
    5PRO    HG2 9229   5.762   4.966   7.015
    5PRO    HG3 9230   5.659   5.091   6.945
    5PRO     CB 9231   5.763   4.963   6.799
    5PRO    HB2 9232   5.815   4.866   6.798
    5PRO    HB3 9233   5.823   5.051   6.777
    5PRO     CA 9234   5.645   4.950   6.704
    5PRO     HA 9235   5.618   5.050   6.671
    5PRO      C 9236   5.680   4.866   6.580
    5PRO      O 9237   5.632   4.749   6.586
    6TRP      N 9238   5.768   4.898   6.487
    6TRP      H 9239   5.789   4.997   6.493
    6TRP     CA 9240   5.819   4.809   6.375
    6TRP     HA 9241   5.737   4.750   6.334
    6TRP     CB 9242   5.868   4.906   6.260
    6TRP    HB2 9243   5.937   4.978   6.304
    6TRP    HB3 9244   5.924   4.858   6.179
    6TRP     CG 9245   5.760   4.980   6.180
    6TRP    CD1 9246   5.715   5.106   6.205
    6TRP    HD1 9247   5.766   5.167   6.280
    6TRP    NE1 9248   5.604   5.145   6.125
    6TRP    HE1 9249   5.558   5.233   6.142
    6TRP    CE2 9250   5.563   5.034   6.059
    6TRP    CZ2 9251   5.454   5.008   5.973
    6TRP    HZ2 9252   5.375   5.081   5.964
    6TRP    CH2 9253   5.438   4.889   5.906
    6TRP    HH2 9254   5.347   4.879   5.849
    6TRP    CZ3 9255   5.525   4.780   5.925
    6TRP    HZ3 9256   5.509   4.684   5.878
    6TRP    CE3 9257   5.634   4.803   6.015
    6TRP    HE3 9258   5.707   4.724   6.030
    6TRP    CD2 9259   5.659   4.930   6.081
    6TRP      C 9260   5.924   4.714   6.412
    6TRP      O 9261   5.957   4.622   6.334
    7TRP      N 9262   5.980   4.729   6.534
    7TRP      H 9263   5.944   4.807   6.587
    7TRP     CA 9264   6.097   4.654   6.581
    7TRP     HA 9265   6.169   4.656   6.500
    7TRP     CB 9266   6.150   4.719   6.710
    7TRP    HB2 9267   6.109   4.668   6.796
    7TRP    HB3 9268   6.254   4.692   6.715
    7TRP     CG 9269   6.152   4.869   6.731
    7TRP    CD1 9270   6.165   4.934   6.850
    7TRP    HD1 9271   6.176   4.883   6.945
    7TRP    NE1 9272   6.164   5.070   6.842
    7TRP    HE1 9273   6.164   5.125   6.927
    7TRP    CE2 9274   6.159   5.105   6.707
    7TRP    CZ2 9275   6.164   5.230   6.649
    7TRP    HZ2 9276   6.170   5.317   6.713
    7TRP    CH2 9277   6.152   5.242   6.509
    7TRP    HH2 9278   6.160   5.341   6.466
    7TRP    CZ3 9279   6.140   5.126   6.432
    7TRP    HZ3 9280   6.122   5.134   6.324
    7TRP    CE3 9281   6.153   4.998   6.495
    7TRP    HE3 9282   6.166   4.909   6.437
    7TRP    CD2 9283   6.155   4.982   6.637
    7TRP      C 9284   6.054   4.511   6.600
    7TRP      O 9285   5.943   4.488   6.647
    8PRO      N 9286   6.142   4.408   6.586
    8PRO     CD 9287   6.286   4.416   6.563
    8PRO    HD2 9288   6.334   4.480   6.638
    8PRO    HD3 9289   6.301   4.453   6.461
    8PRO     CG 9290   6.337   4.276   6.588
    8PRO    HG2 9291   6.376   4.268   6.689
    8PRO    HG3 9292   6.420   4.254   6.522
    8PRO     CB 9293   6.216   4.182   6.561
    8PRO    HB2 9294   6.219   4.098   6.629
    8PRO    HB3 9295   6.208   4.162   6.453
    8PRO     CA 9296   6.097   4.268   6.598
    8PRO     HA 9297   6.021   4.242   6.524
    8PRO      C 9298   6.048   4.229   6.737
    8PRO      O 9299   6.129   4.232   6.835
    9TRP      N 9300   5.918   4.194   6.743
    9TRP      H 9301   5.862   4.200   6.661
    9TRP     CA 9302   5.850   4.140   6.863
    9TRP     HA 9303   5.917   4.086   6.930
    9TRP     CB 9304   5.782   4.262   6.935
    9TRP    HB2 9305   5.728   4.312   6.855
    9TRP    HB3 9306   5.713   4.220   7.009
    9TRP     CG 9307   5.875   4.370   6.994
    9TRP    CD1 9308   5.888   4.503   6.968
    9TRP    HD1 9309   5.825   4.561   6.903
    9TRP    NE1 9310   5.988   4.564   7.043
    9TRP    HE1 9311   6.016   4.661   7.045
    9TRP    CE2 9312   6.062   4.469   7.111
    9TRP    CZ2 9313   6.171   4.470   7.200
    9TRP    HZ2 9314   6.220   4.563   7.223
    9TRP    CH2 9315   6.201   4.357   7.274
    9TRP    HH2 9316   6.280   4.369   7.346
    9TRP    CZ3 9317   6.130   4.238   7.251
    9TRP    HZ3 9318   6.162   4.153   7.308
    9TRP    CE3 9319   6.022   4.232   7.157
    9TRP    HE3 9320   5.963   4.143   7.150
    9TRP    CD2 9321   5.990   4.348   7.084
    9TRP      C 9322   5.742   4.038   6.821
    9TRP      O 9323   5.649   4.069   6.750
   10ARG      N 9324   5.754   3.916   6.870
   10ARG      H 9325   5.845   3.894   6.911
   10ARG     CA 9326   5.658   3.816   6.853
   10ARG     HA 9327   5.622   3.820   6.751
   10ARG     CB 9328   5.723   3.683   6.888
   10ARG    HB2 9329   5.761   3.685   6.991
   10ARG    HB3 9330   5.640   3.612   6.892
   10ARG     CG 9331   5.832   3.634   6.796
   10ARG    HG2 9332   5.781   3.628   6.698
   10ARG    HG3 9333   5.910   3.705   6.774
   10ARG     CD 9334   5.890   3.493   6.840
   10ARG    HD2 9335   5.953   3.452   6.761
   10ARG    HD3 9336   5.941   3.500   6.937
   10ARG     NE 9337   5.781   3.391   6.845
   10ARG     HE 9338   5.737   3.372   6.757
   10ARG     CZ 9339   5.731   3.340   6.959
   10ARG    NH1 9340   5.745   3.405   7.072
   10ARG   HH11 9341   5.771   3.502   7.081
   10ARG   HH12 9342   5.719   3.353   7.155
   10ARG    NH2 9343   5.668   3.224   6.959
   10ARG   HH21 9344   5.670   3.158   6.884
   10ARG   HH22 9345   5.629   3.195   7.047
   10ARG      C 9346   5.539   3.841   6.945
   10ARG      O 9347   5.554   3.885   7.061
   11ARG      N 9348   5.413   3.817   6.903
   11ARG      H 9349   5.407   3.784   6.808
   11ARG     CA 9350   5.285   3.827   6.975
   11ARG     HA 9351   5.312   3.790   7.075
   11ARG     CB 9352   5.234   3.978   6.991
   11ARG    HB2 9353   5.130   3.978   7.027
   11ARG    HB3 9354   5.298   4.034   7.059
   11ARG     CG 9355   5.225   4.052   6.854
   11ARG    HG2 9356   5.323   4.043   6.808
   11ARG    HG3 9357   5.158   3.998   6.787
   11ARG     CD 9358   5.193   4.208   6.868
   11ARG    HD2 9359   5.087   4.208   6.881
   11ARG    HD3 9360   5.251   4.249   6.951
   11ARG     NE 9361   5.222   4.275   6.738
   11ARG     HE 9362   5.173   4.253   6.652
   11ARG     CZ 9363   5.328   4.349   6.716
   11ARG    NH1 9364   5.433   4.375   6.792
   11ARG   HH11 9365   5.441   4.344   6.889
   11ARG   HH12 9366   5.515   4.413   6.749
   11ARG    NH2 9367   5.341   4.402   6.598
   11ARG   HH21 9368   5.279   4.368   6.526
   11ARG   HH22 9369   5.396   4.484   6.579
   11ARG      C 9370   5.185   3.731   6.916
   11ARG      O 9371   5.190   3.717   6.792
   12LYS      N 9372   5.086   3.683   6.991
   12LYS      H 9373   5.096   3.705   7.089
   12LYS     CA 9374   4.973   3.600   6.942
   12LYS     HA 9375   5.026   3.509   6.920
   12LYS     CB 9376   4.876   3.585   7.063
   12LYS    HB2 9377   4.928   3.576   7.158
   12LYS    HB3 9378   4.822   3.678   7.076
   12LYS     CG 9379   4.784   3.468   7.063
   12LYS    HG2 9380   4.729   3.463   6.969
   12LYS    HG3 9381   4.842   3.377   7.080
   12LYS     CD 9382   4.685   3.476   7.172
   12LYS    HD2 9383   4.735   3.471   7.269
   12LYS    HD3 9384   4.625   3.567   7.164
   12LYS     CE 9385   4.584   3.355   7.151
   12LYS    HE2 9386   4.544   3.359   7.050
   12LYS    HE3 9387   4.622   3.253   7.157
   12LYS     NZ 9388   4.467   3.364   7.242
   12LYS    HZ1 9389   4.484   3.333   7.337
   12LYS    HZ2 9390   4.422   3.454   7.245
   12LYS    HZ3 9391   4.402   3.293   7.208
   12LYS      C 9392   4.900   3.637   6.813
   12LYS      O 9393   4.873   3.753   6.792
   13NHE      N 9394   4.859   3.527   6.745
   13NHE    HN1 9395   4.886   3.433   6.771
   13NHE    HN2 9396   4.800   3.534   6.663
    1ILE      N 9397   1.926   6.665   9.171
    1ILE     H1 9398   1.961   6.657   9.264
    1ILE     H2 9399   1.975   6.611   9.099
    1ILE     H3 9400   1.839   6.617   9.184
    1ILE     CA 9401   1.887   6.797   9.118
    1ILE     HA 9402   1.820   6.780   9.034
    1ILE     CB 9403   1.815   6.883   9.231
    1ILE     HB 9404   1.738   6.833   9.289
    1ILE    CG2 9405   1.927   6.921   9.329
    1ILE   HG21 9406   1.968   7.020   9.307
    1ILE   HG22 9407   1.896   6.921   9.434
    1ILE   HG23 9408   2.011   6.852   9.323
    1ILE    CG1 9409   1.731   7.002   9.177
    1ILE   HG12 9410   1.674   6.973   9.089
    1ILE   HG13 9411   1.798   7.084   9.150
    1ILE    CD1 9412   1.630   7.056   9.280
    1ILE   HD11 9413   1.677   7.099   9.367
    1ILE   HD12 9414   1.585   7.146   9.237
    1ILE   HD13 9415   1.551   6.988   9.311
    1ILE      C 9416   2.003   6.865   9.048
    1ILE      O 9417   2.115   6.847   9.091
    2LEU      N 9418   1.975   6.942   8.943
    2LEU      H 9419   1.877   6.952   8.920
    2LEU     CA 9420   2.068   7.043   8.890
    2LEU     HA 9421   2.167   7.040   8.937
    2LEU     CB 9422   2.100   7.020   8.744
    2LEU    HB2 9423   2.021   7.069   8.687
    2LEU    HB3 9424   2.194   7.069   8.720
    2LEU     CG 9425   2.108   6.877   8.693
    2LEU     HG 9426   2.014   6.821   8.697
    2LEU    CD1 9427   2.129   6.881   8.535
    2LEU   HD11 9428   2.031   6.897   8.490
    2LEU   HD12 9429   2.198   6.961   8.510
    2LEU   HD13 9430   2.174   6.791   8.491
    2LEU    CD2 9431   2.221   6.801   8.752
    2LEU   HD21 9432   2.305   6.869   8.753
    2LEU   HD22 9433   2.199   6.787   8.858
    2LEU   HD23 9434   2.246   6.706   8.705
    2LEU      C 9435   2.018   7.188   8.909
    2LEU      O 9436   1.897   7.216   8.920
    3ARG      N 9437   2.112   7.278   8.928
    3ARG      H 9438   2.208   7.247   8.922
    3ARG     CA 9439   2.088   7.420   8.963
    3ARG     HA 9440   1.981   7.441   8.947
    3ARG     CB 9441   2.113   7.452   9.114
    3ARG    HB2 9442   2.067   7.549   9.133
    3ARG    HB3 9443   2.052   7.380   9.168
    3ARG     CG 9444   2.260   7.449   9.168
    3ARG    HG2 9445   2.310   7.356   9.148
    3ARG    HG3 9446   2.315   7.533   9.126
    3ARG     CD 9447   2.272   7.474   9.318
    3ARG    HD2 9448   2.372   7.515   9.336
    3ARG    HD3 9449   2.210   7.560   9.345
    3ARG     NE 9450   2.251   7.361   9.402
    3ARG     HE 9451   2.332   7.303   9.413
    3ARG     CZ 9452   2.143   7.336   9.477
    3ARG    NH1 9453   2.051   7.427   9.502
    3ARG   HH11 9454   2.038   7.507   9.442
    3ARG   HH12 9455   1.974   7.413   9.564
    3ARG    NH2 9456   2.138   7.214   9.536
    3ARG   HH21 9457   2.211   7.147   9.529
    3ARG   HH22 9458   2.060   7.199   9.601
    3ARG      C 9459   2.169   7.517   8.879
    3ARG      O 9460   2.269   7.481   8.819
    4TRP      N 9461   2.111   7.635   8.855
    4TRP      H 9462   2.030   7.662   8.908
    4TRP     CA 9463   2.165   7.734   8.759
    4TRP     HA 9464   2.271   7.713   8.740
    4TRP     CB 9465   2.086   7.715   8.623
    4TRP    HB2 9466   1.979   7.702   8.642
    4TRP    HB3 9467   2.109   7.794   8.551
    4TRP     CG 9468   2.120   7.590   8.549
    4TRP    CD1 9469   2.228   7.572   8.473
    4TRP    HD1 9470   2.308   7.643   8.456
    4TRP    NE1 9471   2.220   7.451   8.411
    4TRP    HE1 9472   2.296   7.416   8.353
    4TRP    CE2 9473   2.106   7.384   8.445
    4TRP    CZ2 9474   2.051   7.259   8.415
    4TRP    HZ2 9475   2.090   7.185   8.346
    4TRP    CH2 9476   1.935   7.220   8.481
    4TRP    HH2 9477   1.885   7.127   8.461
    4TRP    CZ3 9478   1.885   7.291   8.590
    4TRP    HZ3 9479   1.794   7.255   8.636
    4TRP    CE3 9480   1.936   7.419   8.626
    4TRP    HE3 9481   1.895   7.477   8.709
    4TRP    CD2 9482   2.047   7.470   8.550
    4TRP      C 9483   2.146   7.887   8.814
    4TRP      O 9484   2.071   7.906   8.909
    5PRO      N 9485   2.204   7.986   8.748
    5PRO     CD 9486   2.320   7.962   8.666
    5PRO    HD2 9487   2.294   7.958   8.560
    5PRO    HD3 9488   2.380   7.873   8.691
    5PRO     CG 9489   2.408   8.089   8.689
    5PRO    HG2 9490   2.477   8.108   8.607
    5PRO    HG3 9491   2.469   8.073   8.779
    5PRO     CB 9492   2.303   8.196   8.700
    5PRO    HB2 9493   2.261   8.221   8.602
    5PRO    HB3 9494   2.349   8.277   8.757
    5PRO     CA 9495   2.194   8.127   8.780
    5PRO     HA 9496   2.218   8.138   8.885
    5PRO      C 9497   2.056   8.189   8.754
    5PRO      O 9498   1.984   8.119   8.677
    6TRP      N 9499   2.020   8.313   8.786
    6TRP      H 9500   2.084   8.351   8.854
    6TRP     CA 9501   1.892   8.384   8.745
    6TRP     HA 9502   1.807   8.315   8.749
    6TRP     CB 9503   1.866   8.495   8.854
    6TRP    HB2 9504   1.956   8.554   8.864
    6TRP    HB3 9505   1.787   8.566   8.830
    6TRP     CG 9506   1.819   8.447   8.992
    6TRP    CD1 9507   1.899   8.425   9.100
    6TRP    HD1 9508   2.004   8.453   9.095
    6TRP    NE1 9509   1.832   8.368   9.211
    6TRP    HE1 9510   1.884   8.339   9.292
    6TRP    CE2 9511   1.708   8.333   9.169
    6TRP    CZ2 9512   1.601   8.266   9.230
    6TRP    HZ2 9513   1.616   8.215   9.324
    6TRP    CH2 9514   1.477   8.252   9.171
    6TRP    HH2 9515   1.405   8.193   9.225
    6TRP    CZ3 9516   1.450   8.298   9.041
    6TRP    HZ3 9517   1.355   8.282   8.992
    6TRP    CE3 9518   1.560   8.363   8.975
    6TRP    HE3 9519   1.544   8.405   8.876
    6TRP    CD2 9520   1.689   8.386   9.037
    6TRP      C 9521   1.892   8.440   8.610
    6TRP      O 9522   1.786   8.482   8.558
    7TRP      N 9523   2.010   8.445   8.545
    7TRP      H 9524   2.088   8.408   8.598
    7TRP     CA 9525   2.032   8.513   8.417
    7TRP     HA 9526   1.985   8.611   8.426
    7TRP     CB 9527   2.183   8.522   8.390
    7TRP    HB2 9528   2.214   8.440   8.327
    7TRP    HB3 9529   2.196   8.607   8.324
    7TRP     CG 9530   2.284   8.548   8.499
    7TRP    CD1 9531   2.419   8.526   8.493
    7TRP    HD1 9532   2.468   8.486   8.405
    7TRP    NE1 9533   2.488   8.558   8.606
    7TRP    HE1 9534   2.587   8.536   8.612
    7TRP    CE2 9535   2.399   8.616   8.696
    7TRP    CZ2 9536   2.423   8.671   8.820
    7TRP    HZ2 9537   2.524   8.670   8.859
    7TRP    CH2 9538   2.316   8.720   8.897
    7TRP    HH2 9539   2.339   8.766   8.992
    7TRP    CZ3 9540   2.187   8.715   8.844
    7TRP    HZ3 9541   2.102   8.745   8.905
    7TRP    CE3 9542   2.169   8.673   8.708
    7TRP    HE3 9543   2.075   8.689   8.657
    7TRP    CD2 9544   2.273   8.614   8.631
    7TRP      C 9545   1.958   8.436   8.311
    7TRP      O 9546   1.957   8.313   8.317
    8PRO      N 9547   1.908   8.498   8.200
    8PRO     CD 9548   1.927   8.636   8.160
    8PRO    HD2 9549   2.033   8.663   8.158
    8PRO    HD3 9550   1.870   8.699   8.228
    8PRO     CG 9551   1.879   8.641   8.015
    8PRO    HG2 9552   1.965   8.633   7.949
    8PRO    HG3 9553   1.834   8.736   7.995
    8PRO     CB 9554   1.778   8.524   8.001
    8PRO    HB2 9555   1.787   8.480   7.902
    8PRO    HB3 9556   1.679   8.556   8.037
    8PRO     CA 9557   1.829   8.421   8.101
    8PRO     HA 9558   1.739   8.378   8.144
    8PRO      C 9559   1.907   8.314   8.027
    8PRO      O 9560   2.006   8.346   7.953
    9TRP      N 9561   1.863   8.188   8.049
    9TRP      H 9562   1.789   8.173   8.113
    9TRP     CA 9563   1.913   8.067   7.979
    9TRP     HA 9564   1.952   8.088   7.879
    9TRP     CB 9565   2.024   8.004   8.072
    9TRP    HB2 9566   1.976   8.000   8.169
    9TRP    HB3 9567   2.043   7.904   8.033
    9TRP     CG 9568   2.153   8.087   8.094
    9TRP    CD1 9569   2.209   8.138   8.207
    9TRP    HD1 9570   2.176   8.121   8.308
    9TRP    NE1 9571   2.325   8.210   8.182
    9TRP    HE1 9572   2.387   8.255   8.248
    9TRP    CE2 9573   2.343   8.227   8.046
    9TRP    CZ2 9574   2.439   8.288   7.963
    9TRP    HZ2 9575   2.521   8.343   8.007
    9TRP    CH2 9576   2.442   8.260   7.828
    9TRP    HH2 9577   2.524   8.304   7.773
    9TRP    CZ3 9578   2.340   8.180   7.772
    9TRP    HZ3 9579   2.346   8.167   7.665
    9TRP    CE3 9580   2.239   8.122   7.852
    9TRP    HE3 9581   2.170   8.052   7.807
    9TRP    CD2 9582   2.237   8.148   7.990
    9TRP      C 9583   1.799   7.966   7.960
    9TRP      O 9584   1.738   7.919   8.054
   10ARG      N 9585   1.773   7.930   7.835
   10ARG      H 9586   1.813   7.989   7.763
   10ARG     CA 9587   1.681   7.830   7.801
   10ARG     HA 9588   1.593   7.840   7.865
   10ARG     CB 9589   1.649   7.844   7.654
   10ARG    HB2 9590   1.741   7.837   7.594
   10ARG    HB3 9591   1.594   7.753   7.628
   10ARG     CG 9592   1.573   7.967   7.612
   10ARG    HG2 9593   1.480   7.961   7.671
   10ARG    HG3 9594   1.613   8.061   7.647
   10ARG     CD 9595   1.542   7.971   7.456
   10ARG    HD2 9596   1.470   8.049   7.434
   10ARG    HD3 9597   1.635   7.978   7.398
   10ARG     NE 9598   1.464   7.849   7.416
   10ARG     HE 9599   1.373   7.842   7.458
   10ARG     CZ 9600   1.516   7.747   7.344
   10ARG    NH1 9601   1.645   7.729   7.340
   10ARG   HH11 9602   1.713   7.770   7.403
   10ARG   HH12 9603   1.677   7.660   7.272
   10ARG    NH2 9604   1.437   7.666   7.277
   10ARG   HH21 9605   1.340   7.684   7.257
   10ARG   HH22 9606   1.482   7.589   7.230
   10ARG      C 9607   1.742   7.692   7.828
   10ARG      O 9608   1.862   7.669   7.806
   11ARG      N 9609   1.666   7.593   7.878
   11ARG      H 9610   1.571   7.619   7.897
   11ARG     CA 9611   1.701   7.452   7.905
   11ARG     HA 9612   1.765   7.428   7.820
   11ARG     CB 9613   1.786   7.433   8.040
   11ARG    HB2 9614   1.792   7.326   8.065
   11ARG    HB3 9615   1.886   7.475   8.028
   11ARG     CG 9616   1.716   7.497   8.163
   11ARG    HG2 9617   1.696   7.600   8.137
   11ARG    HG3 9618   1.618   7.452   8.177
   11ARG     CD 9619   1.808   7.497   8.295
   11ARG    HD2 9620   1.794   7.397   8.331
   11ARG    HD3 9621   1.910   7.524   8.267
   11ARG     NE 9622   1.749   7.590   8.395
   11ARG     HE 9623   1.656   7.577   8.436
   11ARG     CZ 9624   1.796   7.709   8.421
   11ARG    NH1 9625   1.894   7.777   8.365
   11ARG   HH11 9626   1.956   7.738   8.295
   11ARG   HH12 9627   1.900   7.875   8.382
   11ARG    NH2 9628   1.734   7.780   8.511
   11ARG   HH21 9629   1.644   7.746   8.540
   11ARG   HH22 9630   1.778   7.854   8.563
   11ARG      C 9631   1.577   7.366   7.895
   11ARG      O 9632   1.471   7.418   7.937
   12LYS      N 9633   1.588   7.237   7.863
   12LYS      H 9634   1.680   7.211   7.833
   12LYS     CA 9635   1.477   7.138   7.864
   12LYS     HA 9636   1.420   7.174   7.780
   12LYS     CB 9637   1.543   7.000   7.836
   12LYS    HB2 9638   1.625   7.006   7.766
   12LYS    HB3 9639   1.594   6.968   7.927
   12LYS     CG 9640   1.457   6.893   7.780
   12LYS    HG2 9641   1.367   6.880   7.840
   12LYS    HG3 9642   1.433   6.917   7.676
   12LYS     CD 9643   1.526   6.762   7.777
   12LYS    HD2 9644   1.611   6.766   7.710
   12LYS    HD3 9645   1.556   6.733   7.877
   12LYS     CE 9646   1.419   6.655   7.731
   12LYS    HE2 9647   1.332   6.661   7.795
   12LYS    HE3 9648   1.375   6.664   7.631
   12LYS     NZ 9649   1.470   6.516   7.743
   12LYS    HZ1 9650   1.532   6.486   7.670
   12LYS    HZ2 9651   1.513   6.494   7.832
   12LYS    HZ3 9652   1.388   6.457   7.728
   12LYS      C 9653   1.379   7.134   7.981
   12LYS      O 9654   1.420   7.144   8.094
   13NHE      N 9655   1.253   7.101   7.940
   13NHE    HN1 9656   1.227   7.094   7.842
   13NHE    HN2 9657   1.179   7.083   8.005
    1ILE      N 9658   8.629   8.686   1.674
    1ILE     H1 9659   8.670   8.695   1.583
    1ILE     H2 9660   8.666   8.612   1.734
    1ILE     H3 9661   8.666   8.771   1.714
    1ILE     CA 9662   8.483   8.697   1.691
    1ILE     HA 9663   8.464   8.722   1.795
    1ILE     CB 9664   8.425   8.809   1.595
    1ILE     HB 9665   8.478   8.905   1.593
    1ILE    CG2 9666   8.435   8.750   1.453
    1ILE   HG21 9667   8.342   8.703   1.423
    1ILE   HG22 9668   8.462   8.823   1.376
    1ILE   HG23 9669   8.511   8.672   1.448
    1ILE    CG1 9670   8.284   8.861   1.634
    1ILE   HG12 9671   8.276   8.876   1.742
    1ILE   HG13 9672   8.209   8.789   1.603
    1ILE    CD1 9673   8.248   8.996   1.569
    1ILE   HD11 9674   8.241   8.990   1.461
    1ILE   HD12 9675   8.144   9.018   1.594
    1ILE   HD13 9676   8.310   9.081   1.596
    1ILE      C 9677   8.416   8.562   1.681
    1ILE      O 9678   8.463   8.479   1.606
    2LEU      N 9679   8.308   8.542   1.757
    2LEU      H 9680   8.277   8.620   1.812
    2LEU     CA 9681   8.211   8.434   1.731
    2LEU     HA 9682   8.243   8.364   1.652
    2LEU     CB 9683   8.195   8.342   1.850
    2LEU    HB2 9684   8.119   8.389   1.914
    2LEU    HB3 9685   8.155   8.247   1.817
    2LEU     CG 9686   8.315   8.315   1.939
    2LEU     HG 9687   8.355   8.402   1.991
    2LEU    CD1 9688   8.268   8.228   2.063
    2LEU   HD11 9689   8.224   8.297   2.136
    2LEU   HD12 9690   8.195   8.155   2.031
    2LEU   HD13 9691   8.346   8.170   2.113
    2LEU    CD2 9692   8.421   8.239   1.869
    2LEU   HD21 9693   8.370   8.162   1.811
    2LEU   HD22 9694   8.463   8.304   1.792
    2LEU   HD23 9695   8.501   8.197   1.930
    2LEU      C 9696   8.072   8.486   1.687
    2LEU      O 9697   8.031   8.599   1.716
    3ARG      N 9698   8.007   8.408   1.602
    3ARG      H 9699   8.049   8.319   1.580
    3ARG     CA 9700   7.880   8.443   1.535
    3ARG     HA 9701   7.839   8.532   1.584
    3ARG     CB 9702   7.899   8.484   1.385
    3ARG    HB2 9703   7.807   8.533   1.355
    3ARG    HB3 9704   7.974   8.564   1.388
    3ARG     CG 9705   7.940   8.375   1.281
    3ARG    HG2 9706   8.030   8.321   1.310
    3ARG    HG3 9707   7.857   8.306   1.267
    3ARG     CD 9708   7.963   8.428   1.140
    3ARG    HD2 9709   7.945   8.344   1.071
    3ARG    HD3 9710   7.881   8.494   1.113
    3ARG     NE 9711   8.092   8.484   1.115
    3ARG     HE 9712   8.162   8.416   1.093
    3ARG     CZ 9713   8.121   8.614   1.102
    3ARG    NH1 9714   8.028   8.707   1.087
    3ARG   HH11 9715   7.934   8.692   1.117
    3ARG   HH12 9716   8.048   8.803   1.069
    3ARG    NH2 9717   8.252   8.645   1.095
    3ARG   HH21 9718   8.325   8.576   1.093
    3ARG   HH22 9719   8.275   8.743   1.075
    3ARG      C 9720   7.777   8.333   1.542
    3ARG      O 9721   7.807   8.217   1.565
    4TRP      N 9722   7.649   8.374   1.546
    4TRP      H 9723   7.627   8.469   1.524
    4TRP     CA 9724   7.535   8.282   1.573
    4TRP     HA 9725   7.565   8.178   1.554
    4TRP     CB 9726   7.501   8.296   1.727
    4TRP    HB2 9727   7.503   8.401   1.758
    4TRP    HB3 9728   7.409   8.243   1.753
    4TRP     CG 9729   7.602   8.235   1.819
    4TRP    CD1 9730   7.613   8.105   1.846
    4TRP    HD1 9731   7.553   8.024   1.805
    4TRP    NE1 9732   7.707   8.087   1.943
    4TRP    HE1 9733   7.735   7.994   1.974
    4TRP    CE2 9734   7.763   8.205   1.982
    4TRP    CZ2 9735   7.864   8.244   2.071
    4TRP    HZ2 9736   7.919   8.179   2.138
    4TRP    CH2 9737   7.902   8.377   2.074
    4TRP    HH2 9738   7.976   8.415   2.143
    4TRP    CZ3 9739   7.861   8.468   1.978
    4TRP    HZ3 9740   7.894   8.570   1.987
    4TRP    CE3 9741   7.758   8.436   1.884
    4TRP    HE3 9742   7.722   8.508   1.810
    4TRP    CD2 9743   7.705   8.303   1.887
    4TRP      C 9744   7.405   8.321   1.483
    4TRP      O 9745   7.404   8.430   1.425
    5PRO      N 9746   7.301   8.239   1.483
    5PRO     CD 9747   7.316   8.100   1.515
    5PRO    HD2 9748   7.285   8.078   1.617
    5PRO    HD3 9749   7.417   8.058   1.499
    5PRO     CG 9750   7.217   8.029   1.417
    5PRO    HG2 9751   7.185   7.931   1.453
    5PRO    HG3 9752   7.268   8.013   1.322
    5PRO     CB 9753   7.103   8.127   1.414
    5PRO    HB2 9754   7.044   8.124   1.506
    5PRO    HB3 9755   7.051   8.109   1.320
    5PRO     CA 9756   7.176   8.261   1.413
    5PRO     HA 9757   7.200   8.284   1.309
    5PRO      C 9758   7.088   8.374   1.470
    5PRO      O 9759   7.121   8.407   1.587
    6TRP      N 9760   6.976   8.419   1.415
    6TRP      H 9761   6.970   8.389   1.319
    6TRP     CA 9762   6.878   8.516   1.478
    6TRP     HA 9763   6.931   8.595   1.531
    6TRP     CB 9764   6.801   8.586   1.358
    6TRP    HB2 9765   6.762   8.507   1.293
    6TRP    HB3 9766   6.714   8.646   1.386
    6TRP     CG 9767   6.880   8.688   1.275
    6TRP    CD1 9768   6.945   8.662   1.158
    6TRP    HD1 9769   6.933   8.564   1.111
    6TRP    NE1 9770   7.022   8.770   1.109
    6TRP    HE1 9771   7.081   8.758   1.029
    6TRP    CE2 9772   7.023   8.864   1.206
    6TRP    CZ2 9773   7.088   8.988   1.219
    6TRP    HZ2 9774   7.167   9.015   1.150
    6TRP    CH2 9775   7.065   9.075   1.324
    6TRP    HH2 9776   7.126   9.164   1.326
    6TRP    CZ3 9777   6.979   9.043   1.430
    6TRP    HZ3 9778   6.965   9.108   1.515
    6TRP    CE3 9779   6.915   8.915   1.421
    6TRP    HE3 9780   6.843   8.887   1.497
    6TRP    CD2 9781   6.931   8.825   1.309
    6TRP      C 9782   6.784   8.458   1.574
    6TRP      O 9783   6.713   8.531   1.647
    7TRP      N 9784   6.778   8.323   1.581
    7TRP      H 9785   6.840   8.276   1.517
    7TRP     CA 9786   6.679   8.248   1.659
    7TRP     HA 9787   6.583   8.293   1.637
    7TRP     CB 9788   6.686   8.100   1.618
    7TRP    HB2 9789   6.750   8.046   1.687
    7TRP    HB3 9790   6.588   8.059   1.641
    7TRP     CG 9791   6.709   8.055   1.475
    7TRP    CD1 9792   6.748   7.931   1.435
    7TRP    HD1 9793   6.767   7.849   1.503
    7TRP    NE1 9794   6.762   7.916   1.300
    7TRP    HE1 9795   6.800   7.830   1.263
    7TRP    CE2 9796   6.721   8.035   1.239
    7TRP    CZ2 9797   6.709   8.065   1.105
    7TRP    HZ2 9798   6.738   7.990   1.032
    7TRP    CH2 9799   6.670   8.194   1.066
    7TRP    HH2 9800   6.659   8.214   0.960
    7TRP    CZ3 9801   6.640   8.289   1.165
    7TRP    HZ3 9802   6.617   8.391   1.137
    7TRP    CE3 9803   6.636   8.247   1.302
    7TRP    HE3 9804   6.592   8.310   1.377
    7TRP    CD2 9805   6.685   8.121   1.346
    7TRP      C 9806   6.709   8.271   1.805
    7TRP      O 9807   6.827   8.275   1.841
    8PRO      N 9808   6.610   8.268   1.898
    8PRO     CD 9809   6.471   8.231   1.879
    8PRO    HD2 9810   6.462   8.135   1.829
    8PRO    HD3 9811   6.424   8.312   1.823
    8PRO     CG 9812   6.416   8.213   2.020
    8PRO    HG2 9813   6.417   8.107   2.045
    8PRO    HG3 9814   6.313   8.244   2.024
    8PRO     CB 9815   6.507   8.299   2.111
    8PRO    HB2 9816   6.520   8.250   2.207
    8PRO    HB3 9817   6.472   8.404   2.110
    8PRO     CA 9818   6.641   8.297   2.040
    8PRO     HA 9819   6.681   8.397   2.054
    8PRO      C 9820   6.732   8.196   2.107
    8PRO      O 9821   6.695   8.075   2.120
    9TRP      N 9822   6.851   8.247   2.149
    9TRP      H 9823   6.873   8.342   2.129
    9TRP     CA 9824   6.952   8.173   2.228
    9TRP     HA 9825   6.908   8.095   2.291
    9TRP     CB 9826   7.055   8.113   2.126
    9TRP    HB2 9827   7.080   8.198   2.064
    9TRP    HB3 9828   7.141   8.080   2.185
    9TRP     CG 9829   7.004   8.005   2.028
    9TRP    CD1 9830   6.997   8.003   1.892
    9TRP    HD1 9831   7.038   8.076   1.825
    9TRP    NE1 9832   6.940   7.886   1.843
    9TRP    HE1 9833   6.926   7.857   1.747
    9TRP    CE2 9834   6.886   7.811   1.947
    9TRP    CZ2 9835   6.818   7.688   1.958
    9TRP    HZ2 9836   6.792   7.633   1.869
    9TRP    CH2 9837   6.804   7.628   2.082
    9TRP    HH2 9838   6.760   7.530   2.081
    9TRP    CZ3 9839   6.848   7.697   2.197
    9TRP    HZ3 9840   6.829   7.646   2.290
    9TRP    CE3 9841   6.912   7.824   2.189
    9TRP    HE3 9842   6.953   7.868   2.278
    9TRP    CD2 9843   6.928   7.884   2.063
    9TRP      C 9844   7.024   8.269   2.324
    9TRP      O 9845   7.086   8.364   2.284
   10ARG      N 9846   7.017   8.240   2.453
   10ARG      H 9847   6.945   8.172   2.479
   10ARG     CA 9848   7.087   8.310   2.553
   10ARG     HA 9849   7.083   8.416   2.530
   10ARG     CB 9850   7.024   8.275   2.686
   10ARG    HB2 9851   7.028   8.167   2.703
   10ARG    HB3 9852   7.094   8.315   2.761
   10ARG     CG 9853   6.884   8.325   2.712
   10ARG    HG2 9854   6.894   8.434   2.700
   10ARG    HG3 9855   6.812   8.302   2.634
   10ARG     CD 9856   6.830   8.286   2.855
   10ARG    HD2 9857   6.739   8.340   2.877
   10ARG    HD3 9858   6.820   8.177   2.866
   10ARG     NE 9859   6.921   8.340   2.961
   10ARG     HE 9860   6.927   8.441   2.965
   10ARG     CZ 9861   7.003   8.264   3.036
   10ARG    NH1 9862   7.040   8.145   2.994
   10ARG   HH11 9863   7.030   8.111   2.900
   10ARG   HH12 9864   7.088   8.089   3.063
   10ARG    NH2 9865   7.048   8.308   3.152
   10ARG   HH21 9866   7.011   8.386   3.202
   10ARG   HH22 9867   7.114   8.248   3.200
   10ARG      C 9868   7.234   8.267   2.551
   10ARG      O 9869   7.267   8.149   2.530
   11ARG      N 9870   7.331   8.358   2.572
   11ARG      H 9871   7.298   8.452   2.586
   11ARG     CA 9872   7.477   8.340   2.582
   11ARG     HA 9873   7.484   8.245   2.637
   11ARG     CB 9874   7.548   8.321   2.439
   11ARG    HB2 9875   7.657   8.327   2.452
   11ARG    HB3 9876   7.520   8.225   2.396
   11ARG     CG 9877   7.514   8.435   2.341
   11ARG    HG2 9878   7.406   8.442   2.336
   11ARG    HG3 9879   7.545   8.531   2.383
   11ARG     CD 9880   7.566   8.409   2.191
   11ARG    HD2 9881   7.670   8.438   2.199
   11ARG    HD3 9882   7.549   8.305   2.165
   11ARG     NE 9883   7.500   8.505   2.099
   11ARG     HE 9884   7.510   8.606   2.105
   11ARG     CZ 9885   7.402   8.472   2.018
   11ARG    NH1 9886   7.337   8.358   2.003
   11ARG   HH11 9887   7.362   8.273   2.052
   11ARG   HH12 9888   7.250   8.359   1.954
   11ARG    NH2 9889   7.353   8.566   1.942
   11ARG   HH21 9890   7.380   8.660   1.964
   11ARG   HH22 9891   7.305   8.548   1.855
   11ARG      C 9892   7.536   8.449   2.669
   11ARG      O 9893   7.484   8.561   2.658
   12LYS      N 9894   7.649   8.426   2.735
   12LYS      H 9895   7.679   8.330   2.733
   12LYS     CA 9896   7.727   8.528   2.812
   12LYS     HA 9897   7.659   8.543   2.894
   12LYS     CB 9898   7.859   8.458   2.855
   12LYS    HB2 9899   7.845   8.354   2.880
   12LYS    HB3 9900   7.924   8.451   2.768
   12LYS     CG 9901   7.930   8.513   2.973
   12LYS    HG2 9902   7.946   8.620   2.962
   12LYS    HG3 9903   7.873   8.490   3.063
   12LYS     CD 9904   8.063   8.451   2.991
   12LYS    HD2 9905   8.052   8.344   3.014
   12LYS    HD3 9906   8.125   8.466   2.904
   12LYS     CE 9907   8.134   8.529   3.110
   12LYS    HE2 9908   8.134   8.635   3.087
   12LYS    HE3 9909   8.088   8.525   3.209
   12LYS     NZ 9910   8.276   8.489   3.125
   12LYS    HZ1 9911   8.292   8.402   3.173
   12LYS    HZ2 9912   8.330   8.489   3.039
   12LYS    HZ3 9913   8.315   8.557   3.190
   12LYS      C 9914   7.750   8.667   2.753
   12LYS      O 9915   7.781   8.678   2.636
   13NHE      N 9916   7.750   8.763   2.849
   13NHE    HN1 9917   7.724   8.745   2.945
   13NHE    HN2 9918   7.775   8.859   2.829
    1ILE      N 9919   4.163  10.371   5.720
    1ILE     H1 9920   4.133  10.330   5.807
    1ILE     H2 9921   4.144  10.316   5.636
    1ILE     H3 9922   4.096  10.447   5.716
    1ILE     CA 9923   4.294  10.437   5.710
    1ILE     HA 9924   4.290  10.503   5.625
    1ILE     CB 9925   4.325  10.518   5.843
    1ILE     HB 9926   4.245  10.581   5.883
    1ILE    CG2 9927   4.353  10.410   5.950
    1ILE   HG21 9928   4.459  10.390   5.960
    1ILE   HG22 9929   4.313  10.435   6.049
    1ILE   HG23 9930   4.307  10.315   5.923
    1ILE    CG1 9931   4.436  10.625   5.829
    1ILE   HG12 9932   4.425  10.681   5.736
    1ILE   HG13 9933   4.533  10.577   5.830
    1ILE    CD1 9934   4.435  10.730   5.942
    1ILE   HD11 9935   4.457  10.687   6.039
    1ILE   HD12 9936   4.522  10.793   5.929
    1ILE   HD13 9937   4.346  10.792   5.950
    1ILE      C 9938   4.402  10.340   5.667
    1ILE      O 9939   4.393  10.224   5.703
    2LEU      N 9940   4.500  10.388   5.590
    2LEU      H 9941   4.497  10.486   5.570
    2LEU     CA 9942   4.629  10.318   5.573
    2LEU     HA 9943   4.630  10.218   5.617
    2LEU     CB 9944   4.658  10.289   5.427
    2LEU    HB2 9945   4.706  10.379   5.387
    2LEU    HB3 9946   4.730  10.208   5.420
    2LEU     CG 9947   4.542  10.258   5.333
    2LEU     HG 9948   4.470  10.338   5.319
    2LEU    CD1 9949   4.598  10.246   5.185
    2LEU   HD11 9950   4.608  10.347   5.147
    2LEU   HD12 9951   4.695  10.195   5.187
    2LEU   HD13 9952   4.537  10.187   5.116
    2LEU    CD2 9953   4.476  10.129   5.367
    2LEU   HD21 9954   4.556  10.059   5.391
    2LEU   HD22 9955   4.425  10.143   5.463
    2LEU   HD23 9956   4.407  10.089   5.293
    2LEU      C 9957   4.748  10.394   5.635
    2LEU      O 9958   4.747  10.517   5.653
    3ARG      N 9959   4.844  10.317   5.682
    3ARG      H 9960   4.836  10.218   5.668
    3ARG     CA 9961   4.961  10.366   5.760
    3ARG     HA 9962   4.965  10.475   5.750
    3ARG     CB 9963   4.949  10.339   5.913
    3ARG    HB2 9964   5.024  10.402   5.961
    3ARG    HB3 9965   4.854  10.383   5.942
    3ARG     CG 9966   4.959  10.193   5.965
    3ARG    HG2 9967   4.888  10.126   5.917
    3ARG    HG3 9968   5.060  10.156   5.951
    3ARG     CD 9969   4.938  10.178   6.115
    3ARG    HD2 9970   4.990  10.086   6.146
    3ARG    HD3 9971   4.998  10.253   6.167
    3ARG     NE 9972   4.803  10.172   6.159
    3ARG     HE 9973   4.761  10.081   6.152
    3ARG     CZ 9974   4.736  10.270   6.222
    3ARG    NH1 9975   4.795  10.376   6.274
    3ARG   HH11 9976   4.884  10.407   6.241
    3ARG   HH12 9977   4.748  10.445   6.327
    3ARG    NH2 9978   4.603  10.249   6.240
    3ARG   HH21 9979   4.557  10.164   6.214
    3ARG   HH22 9980   4.553  10.318   6.296
    3ARG      C 9981   5.093  10.310   5.711
    3ARG      O 9982   5.098  10.208   5.643
    4TRP      N 9983   5.199  10.390   5.724
    4TRP      H 9984   5.192  10.472   5.782
    4TRP     CA 9985   5.332  10.360   5.664
    4TRP     HA 9986   5.339  10.254   5.641
    4TRP     CB 9987   5.340  10.442   5.528
    4TRP    HB2 9988   5.301  10.543   5.541
    4TRP    HB3 9989   5.440  10.437   5.485
    4TRP     CG 9990   5.253  10.389   5.419
    4TRP    CD1 9991   5.281  10.283   5.343
    4TRP    HD1 9992   5.368  10.219   5.349
    4TRP    NE1 9993   5.186  10.272   5.246
    4TRP    HE1 9994   5.185  10.193   5.181
    4TRP    CE2 9995   5.090  10.368   5.256
    4TRP    CZ2 9996   4.972  10.400   5.188
    4TRP    HZ2 9997   4.932  10.351   5.100
    4TRP    CH2 9998   4.893  10.503   5.237
    4TRP    HH2 9999   4.803  10.536   5.189
    4TRP    CZ310000   4.916  10.560   5.362
    4TRP    HZ310001   4.850  10.640   5.394
    4TRP    CE310002   5.034  10.532   5.437
    4TRP    HE310003   5.054  10.580   5.533
    4TRP    CD210004   5.126  10.437   5.382
    4TRP      C10005   5.453  10.405   5.764
    4TRP      O10006   5.427  10.477   5.860
    5PRO      N10007   5.577  10.370   5.732
    5PRO     CD10008   5.603  10.257   5.648
    5PRO    HD210009   5.626  10.287   5.547
    5PRO    HD310010   5.524  10.180   5.645
    5PRO     CG10011   5.731  10.193   5.711
    5PRO    HG210012   5.788  10.134   5.640
    5PRO    HG310013   5.700  10.126   5.792
    5PRO     CB10014   5.807  10.316   5.754
    5PRO    HB210015   5.852  10.368   5.668
    5PRO    HB310016   5.874  10.283   5.833
    5PRO     CA10017   5.696  10.405   5.807
    5PRO     HA10018   5.679  10.379   5.911
    5PRO      C10019   5.735  10.554   5.800
    5PRO      O10020   5.679  10.615   5.705
    6TRP      N10021   5.833  10.611   5.869
    6TRP      H10022   5.860  10.552   5.946
    6TRP     CA10023   5.887  10.752   5.851
    6TRP     HA10024   5.805  10.822   5.832
    6TRP     CB10025   5.952  10.794   5.989
    6TRP    HB210026   6.022  10.715   6.018
    6TRP    HB310027   6.010  10.886   5.987
    6TRP     CG10028   5.855  10.823   6.105
    6TRP    CD110029   5.817  10.735   6.201
    6TRP    HD110030   5.866  10.637   6.206
    6TRP    NE110031   5.717  10.784   6.288
    6TRP    HE110032   5.675  10.723   6.357
    6TRP    CE210033   5.673  10.901   6.236
    6TRP    CZ210034   5.571  10.990   6.272
    6TRP    HZ210035   5.497  10.960   6.345
    6TRP    CH210036   5.552  11.112   6.210
    6TRP    HH210037   5.466  11.168   6.243
    6TRP    CZ310038   5.629  11.154   6.101
    6TRP    HZ310039   5.611  11.246   6.049
    6TRP    CE310040   5.732  11.062   6.060
    6TRP    HE310041   5.798  11.090   5.979
    6TRP    CD210042   5.760  10.937   6.127
    6TRP      C10043   5.981  10.770   5.740
    6TRP      O10044   6.015  10.885   5.703
    7TRP      N10045   6.028  10.658   5.681
    7TRP      H10046   5.993  10.572   5.720
    7TRP     CA10047   6.136  10.657   5.581
    7TRP     HA10048   6.215  10.721   5.619
    7TRP     CB10049   6.182  10.512   5.559
    7TRP    HB210050   6.131  10.469   5.475
    7TRP    HB310051   6.284  10.519   5.523
    7TRP     CG10052   6.193  10.411   5.673
    7TRP    CD110053   6.200  10.276   5.661
    7TRP    HD110054   6.200  10.225   5.566
    7TRP    NE110055   6.209  10.208   5.779
    7TRP    HE110056   6.206  10.107   5.779
    7TRP    CE210057   6.218  10.302   5.882
    7TRP    CZ210058   6.236  10.282   6.017
    7TRP    HZ210059   6.242  10.180   6.055
    7TRP    CH210060   6.236  10.392   6.104
    7TRP    HH210061   6.254  10.374   6.209
    7TRP    CZ310062   6.222  10.521   6.051
    7TRP    HZ310063   6.215  10.607   6.118
    7TRP    CE310064   6.222  10.538   5.909
    7TRP    HE310065   6.234  10.635   5.864
    7TRP    CD210066   6.211  10.428   5.818
    7TRP      C10067   6.082  10.720   5.455
    7TRP      O10068   5.965  10.697   5.423
    8PRO      N10069   6.164  10.787   5.369
    8PRO     CD10070   6.309  10.796   5.374
    8PRO    HD210071   6.355  10.697   5.382
    8PRO    HD310072   6.335  10.861   5.458
    8PRO     CG10073   6.348  10.851   5.238
    8PRO    HG210074   6.378  10.769   5.173
    8PRO    HG310075   6.434  10.915   5.247
    8PRO     CB10076   6.223  10.929   5.187
    8PRO    HB210077   6.215  10.917   5.079
    8PRO    HB310078   6.223  11.030   5.229
    8PRO     CA10079   6.108  10.854   5.250
    8PRO     HA10080   6.037  10.932   5.277
    8PRO      C10081   6.046  10.761   5.147
    8PRO      O10082   6.118  10.675   5.088
    9TRP      N10083   5.913  10.780   5.128
    9TRP      H10084   5.864  10.846   5.183
    9TRP     CA10085   5.832  10.711   5.025
    9TRP     HA10086   5.890  10.683   4.937
    9TRP     CB10087   5.767  10.586   5.094
    9TRP    HB210088   5.723  10.627   5.185
    9TRP    HB310089   5.689  10.550   5.026
    9TRP     CG10090   5.861  10.474   5.143
    9TRP    CD110091   5.886  10.423   5.266
    9TRP    HD110092   5.833  10.447   5.356
    9TRP    NE110093   5.983  10.324   5.266
    9TRP    HE110094   6.017  10.268   5.343
    9TRP    CE210095   6.045  10.317   5.142
    9TRP    CZ210096   6.146  10.238   5.083
    9TRP    HZ210097   6.199  10.167   5.144
    9TRP    CH210098   6.162  10.238   4.946
    9TRP    HH210099   6.235  10.168   4.909
    9TRP    CZ310100   6.085  10.325   4.867
    9TRP    HZ310101   6.106  10.322   4.762
    9TRP    CE310102   5.986  10.409   4.924
    9TRP    HE310103   5.921  10.466   4.859
    9TRP    CD210104   5.967  10.408   5.063
    9TRP      C10105   5.721  10.805   4.974
    9TRP      O10106   5.637  10.851   5.048
   10ARG      N10107   5.721  10.831   4.844
   10ARG      H10108   5.806  10.806   4.794
   10ARG     CA10109   5.620  10.903   4.780
   10ARG     HA10110   5.592  10.988   4.842
   10ARG     CB10111   5.673  10.945   4.643
   10ARG    HB210112   5.702  10.857   4.585
   10ARG    HB310113   5.585  10.983   4.590
   10ARG     CG10114   5.785  11.045   4.641
   10ARG    HG210115   5.742  11.131   4.695
   10ARG    HG310116   5.870  11.022   4.704
   10ARG     CD10117   5.830  11.084   4.494
   10ARG    HD210118   5.896  11.170   4.497
   10ARG    HD310119   5.873  10.997   4.442
   10ARG     NE10120   5.714  11.139   4.418
   10ARG     HE10121   5.676  11.225   4.454
   10ARG     CZ10122   5.651  11.073   4.318
   10ARG    NH110123   5.661  10.943   4.309
   10ARG   HH1110124   5.693  10.881   4.383
   10ARG   HH1210125   5.624  10.903   4.224
   10ARG    NH210126   5.581  11.139   4.228
   10ARG   HH2110127   5.584  11.238   4.214
   10ARG   HH2210128   5.532  11.082   4.160
   10ARG      C10129   5.496  10.816   4.762
   10ARG      O10130   5.505  10.695   4.735
   11ARG      N10131   5.373  10.869   4.778
   11ARG      H10132   5.372  10.966   4.803
   11ARG     CA10133   5.240  10.807   4.761
   11ARG     HA10134   5.256  10.743   4.673
   11ARG     CB10135   5.198  10.713   4.884
   11ARG    HB210136   5.092  10.686   4.874
   11ARG    HB310137   5.260  10.623   4.886
   11ARG     CG10138   5.206  10.786   5.019
   11ARG    HG210139   5.306  10.827   5.027
   11ARG    HG310140   5.140  10.874   5.018
   11ARG     CD10141   5.183  10.690   5.146
   11ARG    HD210142   5.076  10.682   5.149
   11ARG    HD310143   5.237  10.596   5.129
   11ARG     NE10144   5.227  10.761   5.269
   11ARG     HE10145   5.184  10.846   5.303
   11ARG     CZ10146   5.339  10.735   5.332
   11ARG    NH110147   5.439  10.654   5.301
   11ARG   HH1110148   5.437  10.590   5.223
   11ARG   HH1210149   5.527  10.667   5.348
   11ARG    NH210150   5.365  10.805   5.439
   11ARG   HH2110151   5.308  10.885   5.455
   11ARG   HH2210152   5.427  10.773   5.512
   11ARG      C10153   5.139  10.913   4.723
   11ARG      O10154   5.153  11.023   4.778
   12LYS      N10155   5.031  10.879   4.652
   12LYS      H10156   5.034  10.785   4.616
   12LYS     CA10157   4.917  10.969   4.621
   12LYS     HA10158   4.965  11.036   4.552
   12LYS     CB10159   4.809  10.879   4.553
   12LYS    HB210160   4.852  10.803   4.489
   12LYS    HB310161   4.761  10.819   4.629
   12LYS     CG10162   4.710  10.946   4.465
   12LYS    HG210163   4.662  11.029   4.517
   12LYS    HG310164   4.760  10.980   4.373
   12LYS     CD10165   4.603  10.854   4.422
   12LYS    HD210166   4.644  10.774   4.360
   12LYS    HD310167   4.550  10.813   4.508
   12LYS     CE10168   4.496  10.941   4.343
   12LYS    HE210169   4.465  11.024   4.406
   12LYS    HE310170   4.527  10.991   4.251
   12LYS     NZ10171   4.373  10.864   4.313
   12LYS    HZ110172   4.380  10.801   4.234
   12LYS    HZ210173   4.334  10.813   4.390
   12LYS    HZ310174   4.307  10.934   4.279
   12LYS      C10175   4.857  11.058   4.730
   12LYS      O10176   4.840  11.014   4.841
   13NHE      N10177   4.815  11.177   4.679
   13NHE    HN110178   4.833  11.206   4.584
   13NHE    HN210179   4.763  11.244   4.735
    1ILE      N10180   9.715   7.057   5.947
    1ILE     H110181   9.640   7.123   5.953
    1ILE     H210182   9.780   7.070   5.869
    1ILE     H310183   9.767   7.087   6.028
    1ILE     CA10184   9.690   6.914   5.970
    1ILE     HA10185   9.785   6.868   5.995
    1ILE     CB10186   9.585   6.894   6.088
    1ILE     HB10187   9.601   6.952   6.178
    1ILE    CG210188   9.450   6.940   6.029
    1ILE   HG2110189   9.393   6.856   5.990
    1ILE   HG2210190   9.387   6.993   6.101
    1ILE   HG2310191   9.464   7.007   5.946
    1ILE    CG110192   9.584   6.752   6.150
    1ILE   HG1210193   9.686   6.715   6.165
    1ILE   HG1310194   9.531   6.684   6.085
    1ILE    CD110195   9.517   6.746   6.289
    1ILE   HD1110196   9.411   6.770   6.285
    1ILE   HD1210197   9.512   6.642   6.319
    1ILE   HD1310198   9.563   6.805   6.368
    1ILE      C10199   9.656   6.842   5.841
    1ILE      O10200   9.595   6.902   5.755
    2LEU      N10201   9.698   6.715   5.829
    2LEU      H10202   9.745   6.676   5.909
    2LEU     CA10203   9.641   6.622   5.730
    2LEU     HA10204   9.573   6.670   5.659
    2LEU     CB10205   9.748   6.565   5.639
    2LEU    HB210206   9.790   6.478   5.690
    2LEU    HB310207   9.702   6.530   5.547
    2LEU     CG10208   9.867   6.653   5.600
    2LEU     HG10209   9.931   6.683   5.683
    2LEU    CD110210   9.969   6.566   5.517
    2LEU   HD1110211  10.029   6.509   5.588
    2LEU   HD1210212   9.915   6.499   5.449
    2LEU   HD1310213  10.037   6.622   5.451
    2LEU    CD210214   9.827   6.769   5.516
    2LEU   HD2110215   9.754   6.731   5.445
    2LEU   HD2210216   9.767   6.836   5.579
    2LEU   HD2310217   9.907   6.824   5.468
    2LEU      C10218   9.562   6.506   5.793
    2LEU      O10219   9.582   6.467   5.910
    3ARG      N10220   9.460   6.463   5.722
    3ARG      H10221   9.447   6.502   5.630
    3ARG     CA10222   9.360   6.363   5.769
    3ARG     HA10223   9.399   6.317   5.860
    3ARG     CB10224   9.224   6.427   5.809
    3ARG    HB210225   9.170   6.351   5.866
    3ARG    HB310226   9.250   6.503   5.883
    3ARG     CG10227   9.132   6.487   5.699
    3ARG    HG210228   9.183   6.561   5.637
    3ARG    HG310229   9.093   6.407   5.637
    3ARG     CD10230   9.005   6.554   5.751
    3ARG    HD210231   8.931   6.550   5.670
    3ARG    HD310232   8.958   6.488   5.824
    3ARG     NE10233   9.019   6.688   5.796
    3ARG     HE10234   9.016   6.756   5.723
    3ARG     CZ10235   9.020   6.729   5.924
    3ARG    NH110236   8.982   6.652   6.024
    3ARG   HH1110237   8.984   6.552   6.017
    3ARG   HH1210238   8.974   6.684   6.118
    3ARG    NH210239   9.051   6.860   5.944
    3ARG   HH2110240   9.068   6.924   5.869
    3ARG   HH2210241   9.042   6.894   6.040
    3ARG      C10242   9.334   6.254   5.667
    3ARG      O10243   9.360   6.268   5.549
    4TRP      N10244   9.303   6.134   5.718
    4TRP      H10245   9.279   6.126   5.816
    4TRP     CA10246   9.293   6.010   5.636
    4TRP     HA10247   9.280   6.036   5.531
    4TRP     CB10248   9.432   5.934   5.651
    4TRP    HB210249   9.465   5.935   5.755
    4TRP    HB310250   9.428   5.835   5.606
    4TRP     CG10251   9.546   6.000   5.581
    4TRP    CD110252   9.571   5.993   5.450
    4TRP    HD110253   9.512   5.941   5.375
    4TRP    NE110254   9.690   6.053   5.424
    4TRP    HE110255   9.724   6.064   5.328
    4TRP    CE210256   9.747   6.105   5.536
    4TRP    CZ210257   9.862   6.179   5.565
    4TRP    HZ210258   9.940   6.207   5.496
    4TRP    CH210259   9.881   6.225   5.695
    4TRP    HH210260   9.969   6.279   5.725
    4TRP    CZ310261   9.780   6.219   5.790
    4TRP    HZ310262   9.801   6.257   5.889
    4TRP    CE310263   9.659   6.146   5.767
    4TRP    HE310264   9.581   6.138   5.843
    4TRP    CD210265   9.643   6.084   5.639
    4TRP      C10266   9.172   5.914   5.687
    4TRP      O10267   9.119   5.938   5.796
    5PRO      N10268   9.139   5.809   5.614
    5PRO     CD10269   9.169   5.804   5.474
    5PRO    HD210270   9.257   5.743   5.453
    5PRO    HD310271   9.181   5.902   5.423
    5PRO     CG10272   9.045   5.732   5.412
    5PRO    HG210273   9.067   5.683   5.317
    5PRO    HG310274   8.967   5.807   5.393
    5PRO     CB10275   9.012   5.631   5.520
    5PRO    HB210276   9.084   5.548   5.520
    5PRO    HB310277   8.907   5.607   5.507
    5PRO     CA10278   9.037   5.711   5.647
    5PRO     HA10279   8.945   5.766   5.669
    5PRO      C10280   9.070   5.620   5.766
    5PRO      O10281   9.193   5.620   5.795
    6TRP      N10282   8.988   5.532   5.821
    6TRP      H10283   8.892   5.552   5.793
    6TRP     CA10284   9.023   5.427   5.925
    6TRP     HA10285   9.092   5.469   5.999
    6TRP     CB10286   8.889   5.394   6.002
    6TRP    HB210287   8.813   5.369   5.928
    6TRP    HB310288   8.894   5.307   6.069
    6TRP     CG10289   8.835   5.501   6.098
    6TRP    CD110290   8.741   5.594   6.068
    6TRP    HD110291   8.689   5.589   5.972
    6TRP    NE110292   8.719   5.690   6.170
    6TRP    HE110293   8.659   5.769   6.154
    6TRP    CE210294   8.816   5.670   6.263
    6TRP    CZ210295   8.852   5.738   6.381
    6TRP    HZ210296   8.809   5.835   6.402
    6TRP    CH210297   8.948   5.693   6.468
    6TRP    HH210298   8.971   5.757   6.551
    6TRP    CZ310299   9.024   5.578   6.442
    6TRP    HZ310300   9.104   5.545   6.507
    6TRP    CE310301   8.993   5.509   6.321
    6TRP    HE310302   9.045   5.417   6.297
    6TRP    CD210303   8.887   5.550   6.230
    6TRP      C10304   9.087   5.305   5.874
    6TRP      O10305   9.139   5.223   5.952
    7TRP      N10306   9.087   5.288   5.740
    7TRP      H10307   9.042   5.362   5.688
    7TRP     CA10308   9.131   5.165   5.672
    7TRP     HA10309   9.084   5.083   5.726
    7TRP     CB10310   9.089   5.172   5.525
    7TRP    HB210311   9.171   5.209   5.465
    7TRP    HB310312   9.082   5.069   5.492
    7TRP     CG10313   8.957   5.232   5.479
    7TRP    CD110314   8.925   5.271   5.353
    7TRP    HD110315   8.993   5.264   5.270
    7TRP    NE110316   8.799   5.322   5.339
    7TRP    HE110317   8.771   5.362   5.250
    7TRP    CE210318   8.734   5.309   5.461
    7TRP    CZ210319   8.603   5.339   5.494
    7TRP    HZ210320   8.538   5.381   5.418
    7TRP    CH210321   8.559   5.323   5.626
    7TRP    HH210322   8.455   5.343   5.648
    7TRP    CZ310323   8.648   5.272   5.722
    7TRP    HZ310324   8.618   5.266   5.826
    7TRP    CE310325   8.777   5.226   5.679
    7TRP    HE310326   8.839   5.167   5.744
    7TRP    CD210327   8.828   5.250   5.548
    7TRP      C10328   9.280   5.154   5.691
    7TRP      O10329   9.348   5.256   5.685
    8PRO      N10330   9.342   5.033   5.695
    8PRO     CD10331   9.282   4.902   5.671
    8PRO    HD210332   9.228   4.900   5.575
    8PRO    HD310333   9.217   4.879   5.756
    8PRO     CG10334   9.401   4.809   5.655
    8PRO    HG210335   9.421   4.793   5.549
    8PRO    HG310336   9.376   4.711   5.695
    8PRO     CB10337   9.517   4.876   5.733
    8PRO    HB210338   9.611   4.857   5.681
    8PRO    HB310339   9.510   4.850   5.840
    8PRO     CA10340   9.487   5.024   5.720
    8PRO     HA10341   9.515   5.065   5.817
    8PRO      C10342   9.574   5.084   5.611
    8PRO      O10343   9.571   5.035   5.494
    9TRP      N10344   9.649   5.189   5.652
    9TRP      H10345   9.640   5.223   5.744
    9TRP     CA10346   9.751   5.257   5.569
    9TRP     HA10347   9.796   5.191   5.494
    9TRP     CB10348   9.681   5.380   5.502
    9TRP    HB210349   9.631   5.429   5.585
    9TRP    HB310350   9.761   5.443   5.461
    9TRP     CG10351   9.569   5.351   5.400
    9TRP    CD110352   9.436   5.384   5.399
    9TRP    HD110353   9.386   5.447   5.469
    9TRP    NE110354   9.369   5.334   5.288
    9TRP    HE110355   9.272   5.346   5.262
    9TRP    CE210356   9.450   5.247   5.217
    9TRP    CZ210357   9.438   5.170   5.099
    9TRP    HZ210358   9.344   5.166   5.048
    9TRP    CH210359   9.551   5.117   5.040
    9TRP    HH210360   9.534   5.067   4.946
    9TRP    CZ310361   9.676   5.131   5.103
    9TRP    HZ310362   9.758   5.082   5.053
    9TRP    CE310363   9.690   5.203   5.224
    9TRP    HE310364   9.789   5.221   5.264
    9TRP    CD210365   9.576   5.259   5.284
    9TRP      C10366   9.867   5.306   5.658
    9TRP      O10367   9.850   5.384   5.748
   10ARG      N10368   9.988   5.260   5.628
   10ARG      H10369   9.990   5.179   5.565
   10ARG     CA10370  10.105   5.304   5.690
   10ARG     HA10371  10.086   5.315   5.796
   10ARG     CB10372  10.214   5.203   5.659
   10ARG    HB210373  10.228   5.193   5.551
   10ARG    HB310374  10.307   5.252   5.692
   10ARG     CG10375  10.201   5.066   5.720
   10ARG    HG210376  10.196   5.087   5.828
   10ARG    HG310377  10.105   5.018   5.704
   10ARG     CD10378  10.322   4.970   5.684
   10ARG    HD210379  10.318   4.881   5.746
   10ARG    HD310380  10.325   4.950   5.576
   10ARG     NE10381  10.451   5.031   5.730
   10ARG     HE10382  10.459   5.043   5.829
   10ARG     CZ10383  10.543   5.082   5.646
   10ARG    NH110384  10.509   5.120   5.525
   10ARG   HH1110385  10.415   5.135   5.493
   10ARG   HH1210386  10.587   5.143   5.464
   10ARG    NH210387  10.669   5.095   5.685
   10ARG   HH2110388  10.709   5.051   5.766
   10ARG   HH2210389  10.731   5.140   5.619
   10ARG      C10390  10.144   5.441   5.636
   10ARG      O10391  10.129   5.470   5.515
   11ARG      N10392  10.195   5.535   5.718
   11ARG      H10393  10.202   5.507   5.814
   11ARG     CA10394  10.245   5.670   5.688
   11ARG     HA10395  10.297   5.654   5.592
   11ARG     CB10396  10.128   5.778   5.664
   11ARG    HB210397  10.171   5.878   5.662
   11ARG    HB310398  10.075   5.756   5.571
   11ARG     CG10399  10.028   5.782   5.782
   11ARG    HG210400   9.993   5.680   5.798
   11ARG    HG310401  10.081   5.807   5.875
   11ARG     CD10402   9.899   5.873   5.754
   11ARG    HD210403   9.937   5.971   5.774
   11ARG    HD310404   9.865   5.855   5.651
   11ARG     NE10405   9.795   5.843   5.855
   11ARG     HE10406   9.807   5.859   5.955
   11ARG     CZ10407   9.688   5.771   5.831
   11ARG    NH110408   9.652   5.704   5.724
   11ARG   HH1110409   9.702   5.707   5.636
   11ARG   HH1210410   9.580   5.635   5.733
   11ARG    NH210411   9.605   5.752   5.930
   11ARG   HH2110412   9.637   5.779   6.021
   11ARG   HH2210413   9.507   5.730   5.917
   11ARG      C10414  10.349   5.710   5.790
   11ARG      O10415  10.327   5.672   5.907
   12LYS      N10416  10.444   5.798   5.758
   12LYS      H10417  10.447   5.820   5.659
   12LYS     CA10418  10.543   5.857   5.851
   12LYS     HA10419  10.603   5.770   5.872
   12LYS     CB10420  10.619   5.966   5.771
   12LYS    HB210421  10.636   5.938   5.667
   12LYS    HB310422  10.554   6.052   5.759
   12LYS     CG10423  10.754   6.004   5.818
   12LYS    HG210424  10.752   6.031   5.924
   12LYS    HG310425  10.824   5.922   5.799
   12LYS     CD10426  10.808   6.121   5.745
   12LYS    HD210427  10.822   6.096   5.640
   12LYS    HD310428  10.742   6.207   5.756
   12LYS     CE10429  10.944   6.161   5.815
   12LYS    HE210430  10.926   6.176   5.922
   12LYS    HE310431  11.026   6.089   5.815
   12LYS     NZ10432  10.998   6.290   5.764
   12LYS    HZ110433  11.045   6.285   5.675
   12LYS    HZ210434  10.931   6.365   5.760
   12LYS    HZ310435  11.074   6.313   5.828
   12LYS      C10436  10.498   5.908   5.989
   12LYS      O10437  10.395   5.971   5.998
   13NHE      N10438  10.593   5.887   6.083
   13NHE    HN110439  10.677   5.833   6.066
   13NHE    HN210440  10.584   5.924   6.177
  12.50000  12.50000  12.50000
