Built with Packmol
10440
    1ILE      N    1  10.027   2.746   6.673
    1ILE     H1    2  10.120   2.783   6.685
    1ILE     H2    3  10.003   2.680   6.745
    1ILE     H3    4   9.954   2.816   6.682
    1ILE     CA    5  10.020   2.677   6.542
    1ILE     HA    6   9.925   2.625   6.536
    1ILE     CB    7  10.019   2.769   6.420
    1ILE     HB    8  10.014   2.699   6.335
    1ILE    CG2    9   9.885   2.842   6.427
    1ILE   HG21   10   9.873   2.925   6.497
    1ILE   HG22   11   9.864   2.896   6.335
    1ILE   HG23   12   9.803   2.771   6.428
    1ILE    CG1   13  10.137   2.865   6.418
    1ILE   HG12   14  10.228   2.814   6.448
    1ILE   HG13   15  10.119   2.956   6.476
    1ILE    CD1   16  10.160   2.893   6.270
    1ILE   HD11   17  10.251   2.951   6.252
    1ILE   HD12   18  10.168   2.797   6.219
    1ILE   HD13   19  10.081   2.952   6.226
    1ILE      C   20  10.123   2.566   6.536
    1ILE      O   21  10.232   2.586   6.596
    2LEU      N   22  10.091   2.459   6.461
    2LEU      H   23  10.005   2.468   6.410
    2LEU     CA   24  10.182   2.346   6.442
    2LEU     HA   25  10.228   2.324   6.539
    2LEU     CB   26  10.103   2.222   6.391
    2LEU    HB2   27  10.055   2.246   6.296
    2LEU    HB3   28  10.165   2.134   6.378
    2LEU     CG   29   9.982   2.182   6.474
    2LEU     HG   30   9.902   2.253   6.491
    2LEU    CD1   31   9.920   2.055   6.416
    2LEU   HD11   32   9.990   1.975   6.391
    2LEU   HD12   33   9.847   2.024   6.492
    2LEU   HD13   34   9.854   2.070   6.331
    2LEU    CD2   35  10.037   2.154   6.614
    2LEU   HD21   36  10.057   2.251   6.661
    2LEU   HD22   37   9.959   2.098   6.668
    2LEU   HD23   38  10.124   2.088   6.612
    2LEU      C   39  10.295   2.387   6.342
    2LEU      O   40  10.273   2.466   6.253
    3ARG      N   41  10.420   2.337   6.357
    3ARG      H   42  10.438   2.282   6.440
    3ARG     CA   43  10.531   2.361   6.264
    3ARG     HA   44  10.505   2.458   6.222
    3ARG     CB   45  10.655   2.380   6.351
    3ARG    HB2   46  10.679   2.286   6.398
    3ARG    HB3   47  10.737   2.413   6.288
    3ARG     CG   48  10.651   2.491   6.458
    3ARG    HG2   49  10.584   2.462   6.538
    3ARG    HG3   50  10.747   2.490   6.511
    3ARG     CD   51  10.619   2.634   6.410
    3ARG    HD2   52  10.701   2.674   6.348
    3ARG    HD3   53  10.537   2.647   6.340
    3ARG     NE   54  10.608   2.738   6.522
    3ARG     HE   55  10.647   2.712   6.611
    3ARG     CZ   56  10.558   2.860   6.507
    3ARG    NH1   57  10.498   2.898   6.399
    3ARG   HH11   58  10.521   2.848   6.315
    3ARG   HH12   59  10.460   2.992   6.405
    3ARG    NH2   60  10.574   2.941   6.607
    3ARG   HH21   61  10.610   2.908   6.696
    3ARG   HH22   62  10.508   3.017   6.607
    3ARG      C   63  10.536   2.272   6.138
    3ARG      O   64  10.626   2.291   6.055
    4TRP      N   65  10.430   2.192   6.117
    4TRP      H   66  10.350   2.208   6.176
    4TRP     CA   67  10.407   2.125   5.986
    4TRP     HA   68  10.485   2.158   5.917
    4TRP     CB   69  10.424   1.973   6.010
    4TRP    HB2   70  10.379   1.915   5.930
    4TRP    HB3   71  10.530   1.949   6.003
    4TRP     CG   72  10.354   1.918   6.145
    4TRP    CD1   73  10.217   1.905   6.151
    4TRP    HD1   74  10.144   1.948   6.084
    4TRP    NE1   75  10.186   1.841   6.267
    4TRP    HE1   76  10.098   1.800   6.296
    4TRP    CE2   77  10.298   1.816   6.349
    4TRP    CZ2   78  10.326   1.767   6.476
    4TRP    HZ2   79  10.246   1.735   6.540
    4TRP    CH2   80  10.454   1.755   6.529
    4TRP    HH2   81  10.475   1.709   6.625
    4TRP    CZ3   82  10.564   1.805   6.452
    4TRP    HZ3   83  10.667   1.812   6.487
    4TRP    CE3   84  10.535   1.860   6.327
    4TRP    HE3   85  10.614   1.888   6.258
    4TRP    CD2   86  10.406   1.864   6.269
    4TRP      C   87  10.271   2.172   5.919
    4TRP      O   88  10.186   2.223   5.991
    5PRO      N   89  10.253   2.157   5.784
    5PRO     CD   90  10.344   2.110   5.686
    5PRO    HD2   91  10.394   2.017   5.715
    5PRO    HD3   92  10.422   2.183   5.668
    5PRO     CG   93  10.266   2.090   5.557
    5PRO    HG2   94  10.218   1.992   5.561
    5PRO    HG3   95  10.324   2.105   5.466
    5PRO     CB   96  10.141   2.191   5.573
    5PRO    HB2   97  10.053   2.157   5.520
    5PRO    HB3   98  10.177   2.291   5.545
    5PRO     CA   99  10.119   2.193   5.729
    5PRO     HA  100  10.103   2.296   5.760
    5PRO      C  101  10.009   2.102   5.782
    5PRO      O  102  10.015   1.979   5.774
    6TRP      N  103   9.907   2.171   5.828
    6TRP      H  104   9.910   2.272   5.822
    6TRP     CA  105   9.786   2.113   5.896
    6TRP     HA  106   9.817   2.014   5.929
    6TRP     CB  107   9.753   2.176   6.031
    6TRP    HB2  108   9.835   2.160   6.102
    6TRP    HB3  109   9.734   2.282   6.018
    6TRP     CG  110   9.625   2.115   6.082
    6TRP    CD1  111   9.509   2.186   6.098
    6TRP    HD1  112   9.494   2.289   6.068
    6TRP    NE1  113   9.412   2.109   6.139
    6TRP    HE1  114   9.322   2.138   6.172
    6TRP    CE2  115   9.463   1.982   6.165
    6TRP    CZ2  116   9.398   1.862   6.212
    6TRP    HZ2  117   9.298   1.851   6.252
    6TRP    CH2  118   9.471   1.742   6.221
    6TRP    HH2  119   9.427   1.651   6.257
    6TRP    CZ3  120   9.605   1.744   6.188
    6TRP    HZ3  121   9.670   1.660   6.208
    6TRP    CE3  122   9.662   1.855   6.132
    6TRP    HE3  123   9.770   1.852   6.127
    6TRP    CD2  124   9.597   1.980   6.119
    6TRP      C  125   9.661   2.109   5.807
    6TRP      O  126   9.614   2.211   5.760
    7TRP      N  127   9.605   1.989   5.779
    7TRP      H  128   9.660   1.908   5.806
    7TRP     CA  129   9.469   1.984   5.731
    7TRP     HA  130   9.421   2.082   5.723
    7TRP     CB  131   9.480   1.939   5.585
    7TRP    HB2  132   9.552   1.997   5.526
    7TRP    HB3  133   9.512   1.835   5.581
    7TRP     CG  134   9.355   1.943   5.512
    7TRP    CD1  135   9.306   1.851   5.433
    7TRP    HD1  136   9.355   1.755   5.418
    7TRP    NE1  137   9.186   1.894   5.382
    7TRP    HE1  138   9.126   1.839   5.323
    7TRP    CE2  139   9.156   2.028   5.412
    7TRP    CZ2  140   9.052   2.115   5.370
    7TRP    HZ2  141   8.973   2.079   5.304
    7TRP    CH2  142   9.063   2.252   5.408
    7TRP    HH2  143   8.998   2.323   5.360
    7TRP    CZ3  144   9.184   2.294   5.471
    7TRP    HZ3  145   9.203   2.400   5.481
    7TRP    CE3  146   9.279   2.202   5.520
    7TRP    HE3  147   9.370   2.239   5.564
    7TRP    CD2  148   9.270   2.064   5.489
    7TRP      C  149   9.388   1.893   5.821
    7TRP      O  150   9.429   1.783   5.849
    8PRO      N  151   9.263   1.932   5.856
    8PRO     CD  152   9.208   2.069   5.862
    8PRO    HD2  153   9.153   2.085   5.769
    8PRO    HD3  154   9.290   2.139   5.877
    8PRO     CG  155   9.100   2.066   5.970
    8PRO    HG2  156   9.039   2.153   5.945
    8PRO    HG3  157   9.144   2.072   6.070
    8PRO     CB  158   9.041   1.926   5.954
    8PRO    HB2  159   8.974   1.922   5.870
    8PRO    HB3  160   8.997   1.901   6.050
    8PRO     CA  161   9.168   1.847   5.925
    8PRO     HA  162   9.216   1.815   6.018
    8PRO      C  163   9.125   1.715   5.852
    8PRO      O  164   9.044   1.637   5.902
    9TRP      N  165   9.193   1.676   5.744
    9TRP      H  166   9.265   1.737   5.709
    9TRP     CA  167   9.180   1.550   5.670
    9TRP     HA  168   9.138   1.466   5.725
    9TRP     CB  169   9.074   1.577   5.561
    9TRP    HB2  170   8.978   1.608   5.601
    9TRP    HB3  171   9.112   1.655   5.496
    9TRP     CG  172   9.039   1.463   5.470
    9TRP    CD1  173   9.060   1.455   5.336
    9TRP    HD1  174   9.096   1.537   5.274
    9TRP    NE1  175   9.000   1.340   5.285
    9TRP    HE1  176   8.980   1.323   5.187
    9TRP    CE2  177   8.957   1.257   5.389
    9TRP    CZ2  178   8.907   1.126   5.394
    9TRP    HZ2  179   8.890   1.069   5.304
    9TRP    CH2  180   8.883   1.071   5.517
    9TRP    HH2  181   8.842   0.971   5.518
    9TRP    CZ3  182   8.889   1.147   5.630
    9TRP    HZ3  183   8.878   1.094   5.723
    9TRP    CE3  184   8.935   1.278   5.630
    9TRP    HE3  185   8.943   1.328   5.725
    9TRP    CD2  186   8.974   1.336   5.506
    9TRP      C  187   9.315   1.501   5.619
    9TRP      O  188   9.399   1.580   5.598
   10ARG      N  189   9.319   1.374   5.582
   10ARG      H  190   9.229   1.336   5.559
   10ARG     CA  191   9.433   1.308   5.513
   10ARG     HA  192   9.523   1.330   5.568
   10ARG     CB  193   9.423   1.153   5.500
   10ARG    HB2  194   9.365   1.122   5.412
   10ARG    HB3  195   9.525   1.116   5.494
   10ARG     CG  196   9.351   1.086   5.616
   10ARG    HG2  197   9.390   1.112   5.714
   10ARG    HG3  198   9.248   1.117   5.612
   10ARG     CD  199   9.352   0.935   5.609
   10ARG    HD2  200   9.327   0.911   5.506
   10ARG    HD3  201   9.454   0.897   5.607
   10ARG     NE  202   9.262   0.880   5.719
   10ARG     HE  203   9.276   0.910   5.813
   10ARG     CZ  204   9.158   0.808   5.704
   10ARG    NH1  205   9.110   0.774   5.585
   10ARG   HH11  206   9.156   0.804   5.501
   10ARG   HH12  207   9.037   0.704   5.586
   10ARG    NH2  208   9.092   0.761   5.805
   10ARG   HH21  209   9.080   0.831   5.876
   10ARG   HH22  210   9.012   0.709   5.774
   10ARG      C  211   9.466   1.373   5.377
   10ARG      O  212   9.385   1.435   5.311
   11ARG      N  213   9.594   1.362   5.338
   11ARG      H  214   9.645   1.293   5.391
   11ARG     CA  215   9.658   1.416   5.216
   11ARG     HA  216   9.597   1.410   5.126
   11ARG     CB  217   9.705   1.566   5.230
   11ARG    HB2  218   9.747   1.592   5.327
   11ARG    HB3  219   9.778   1.602   5.158
   11ARG     CG  220   9.586   1.662   5.222
   11ARG    HG2  221   9.545   1.661   5.121
   11ARG    HG3  222   9.506   1.640   5.291
   11ARG     CD  223   9.635   1.802   5.256
   11ARG    HD2  224   9.547   1.865   5.265
   11ARG    HD3  225   9.678   1.806   5.356
   11ARG     NE  226   9.731   1.853   5.152
   11ARG     HE  227   9.824   1.819   5.175
   11ARG     CZ  228   9.699   1.882   5.026
   11ARG    NH1  229   9.574   1.905   4.997
   11ARG   HH11  230   9.510   1.900   5.075
   11ARG   HH12  231   9.553   1.936   4.903
   11ARG    NH2  232   9.786   1.893   4.935
   11ARG   HH21  233   9.885   1.886   4.952
   11ARG   HH22  234   9.749   1.890   4.841
   11ARG      C  235   9.786   1.339   5.194
   11ARG      O  236   9.840   1.273   5.279
   12LYS      N  237   9.829   1.344   5.067
   12LYS      H  238   9.787   1.417   5.011
   12LYS     CA  239   9.954   1.285   5.016
   12LYS     HA  240  10.022   1.269   5.099
   12LYS     CB  241   9.924   1.147   4.948
   12LYS    HB2  242   9.863   1.176   4.863
   12LYS    HB3  243  10.019   1.109   4.911
   12LYS     CG  244   9.854   1.038   5.032
   12LYS    HG2  245   9.908   1.031   5.126
   12LYS    HG3  246   9.758   1.071   5.069
   12LYS     CD  247   9.836   0.901   4.963
   12LYS    HD2  248   9.939   0.888   4.927
   12LYS    HD3  249   9.806   0.823   5.033
   12LYS     CE  250   9.756   0.906   4.833
   12LYS    HE2  251   9.652   0.933   4.847
   12LYS    HE3  252   9.792   0.983   4.766
   12LYS     NZ  253   9.784   0.779   4.763
   12LYS    HZ1  254   9.728   0.704   4.804
   12LYS    HZ2  255   9.746   0.786   4.670
   12LYS    HZ3  256   9.882   0.761   4.752
   12LYS      C  257  10.033   1.377   4.916
   12LYS      O  258   9.973   1.461   4.853
   13NHE      N  259  10.158   1.346   4.893
   13NHE    HN1  260  10.197   1.275   4.953
   13NHE    HN2  261  10.207   1.400   4.824
    1ILE      N  262   8.905  10.662   2.656
    1ILE     H1  263   8.842  10.680   2.579
    1ILE     H2  264   9.001  10.657   2.627
    1ILE     H3  265   8.906  10.735   2.725
    1ILE     CA  266   8.866  10.531   2.717
    1ILE     HA  267   8.943  10.505   2.790
    1ILE     CB  268   8.737  10.532   2.798
    1ILE     HB  269   8.728  10.429   2.832
    1ILE    CG2  270   8.767  10.620   2.919
    1ILE   HG21  271   8.769  10.729   2.908
    1ILE   HG22  272   8.688  10.612   2.994
    1ILE   HG23  273   8.852  10.580   2.974
    1ILE    CG1  274   8.619  10.585   2.717
    1ILE   HG12  275   8.621  10.545   2.616
    1ILE   HG13  276   8.610  10.694   2.719
    1ILE    CD1  277   8.497  10.516   2.780
    1ILE   HD11  278   8.405  10.533   2.723
    1ILE   HD12  279   8.519  10.409   2.782
    1ILE   HD13  280   8.476  10.551   2.879
    1ILE      C  281   8.876  10.421   2.613
    1ILE      O  282   8.845  10.451   2.495
    2LEU      N  283   8.908  10.299   2.659
    2LEU      H  284   8.915  10.292   2.759
    2LEU     CA  285   8.916  10.181   2.572
    2LEU     HA  286   8.966  10.213   2.480
    2LEU     CB  287   8.998  10.069   2.642
    2LEU    HB2  288   8.949  10.042   2.736
    2LEU    HB3  289   9.010   9.980   2.580
    2LEU     CG  290   9.135  10.109   2.693
    2LEU     HG  291   9.145  10.191   2.764
    2LEU    CD1  292   9.206   9.988   2.752
    2LEU   HD11  293   9.201   9.896   2.692
    2LEU   HD12  294   9.309  10.021   2.769
    2LEU   HD13  295   9.177   9.962   2.854
    2LEU    CD2  296   9.211  10.159   2.569
    2LEU   HD21  297   9.173  10.259   2.547
    2LEU   HD22  298   9.317  10.162   2.597
    2LEU   HD23  299   9.204  10.089   2.486
    2LEU      C  300   8.772  10.134   2.536
    2LEU      O  301   8.681  10.147   2.615
    3ARG      N  302   8.746  10.079   2.416
    3ARG      H  303   8.821  10.081   2.348
    3ARG     CA  304   8.617  10.023   2.375
    3ARG     HA  305   8.547  10.079   2.436
    3ARG     CB  306   8.596  10.066   2.230
    3ARG    HB2  307   8.669  10.014   2.168
    3ARG    HB3  308   8.495  10.038   2.200
    3ARG     CG  309   8.599  10.216   2.198
    3ARG    HG2  310   8.701  10.253   2.208
    3ARG    HG3  311   8.584  10.228   2.090
    3ARG     CD  312   8.501  10.307   2.276
    3ARG    HD2  313   8.398  10.286   2.247
    3ARG    HD3  314   8.493  10.292   2.383
    3ARG     NE  315   8.516  10.456   2.246
    3ARG     HE  316   8.567  10.481   2.163
    3ARG     CZ  317   8.461  10.553   2.318
    3ARG    NH1  318   8.402  10.531   2.431
    3ARG   HH11  319   8.367  10.438   2.446
    3ARG   HH12  320   8.370  10.616   2.477
    3ARG    NH2  321   8.468  10.673   2.268
    3ARG   HH21  322   8.524  10.692   2.186
    3ARG   HH22  323   8.456  10.745   2.337
    3ARG      C  324   8.588   9.878   2.420
    3ARG      O  325   8.479   9.827   2.391
    4TRP      N  326   8.677   9.822   2.504
    4TRP      H  327   8.745   9.885   2.543
    4TRP     CA  328   8.646   9.697   2.579
    4TRP     HA  329   8.543   9.668   2.555
    4TRP     CB  330   8.742   9.589   2.525
    4TRP    HB2  331   8.749   9.505   2.593
    4TRP    HB3  332   8.697   9.545   2.435
    4TRP     CG  333   8.895   9.638   2.504
    4TRP    CD1  334   8.977   9.657   2.613
    4TRP    HD1  335   8.947   9.665   2.716
    4TRP    NE1  336   9.103   9.681   2.567
    4TRP    HE1  337   9.190   9.682   2.618
    4TRP    CE2  338   9.110   9.688   2.426
    4TRP    CZ2  339   9.204   9.718   2.329
    4TRP    HZ2  340   9.305   9.746   2.356
    4TRP    CH2  341   9.178   9.716   2.192
    4TRP    HH2  342   9.255   9.732   2.117
    4TRP    CZ3  343   9.045   9.689   2.149
    4TRP    HZ3  344   9.009   9.696   2.046
    4TRP    CE3  345   8.949   9.664   2.247
    4TRP    HE3  346   8.850   9.631   2.222
    4TRP    CD2  347   8.977   9.658   2.386
    4TRP      C  348   8.647   9.721   2.736
    4TRP      O  349   8.705   9.819   2.779
    5PRO      N  350   8.580   9.633   2.818
    5PRO     CD  351   8.501   9.522   2.784
    5PRO    HD2  352   8.548   9.456   2.710
    5PRO    HD3  353   8.406   9.554   2.741
    5PRO     CG  354   8.472   9.445   2.913
    5PRO    HG2  355   8.556   9.379   2.933
    5PRO    HG3  356   8.376   9.392   2.913
    5PRO     CB  357   8.486   9.558   3.027
    5PRO    HB2  358   8.518   9.517   3.122
    5PRO    HB3  359   8.392   9.613   3.030
    5PRO     CA  360   8.594   9.655   2.965
    5PRO     HA  361   8.561   9.757   2.982
    5PRO      C  362   8.737   9.635   3.014
    5PRO      O  363   8.801   9.532   2.990
    6TRP      N  364   8.777   9.736   3.088
    6TRP      H  365   8.713   9.811   3.106
    6TRP     CA  366   8.916   9.753   3.143
    6TRP     HA  367   8.979   9.688   3.082
    6TRP     CB  368   8.981   9.888   3.113
    6TRP    HB2  369   8.992   9.902   3.005
    6TRP    HB3  370   8.919   9.967   3.155
    6TRP     CG  371   9.114   9.895   3.182
    6TRP    CD1  372   9.141   9.982   3.284
    6TRP    HD1  373   9.070  10.048   3.331
    6TRP    NE1  374   9.263   9.964   3.329
    6TRP    HE1  375   9.312  10.023   3.393
    6TRP    CE2  376   9.327   9.870   3.251
    6TRP    CZ2  377   9.461   9.815   3.258
    6TRP    HZ2  378   9.543   9.848   3.320
    6TRP    CH2  379   9.499   9.712   3.171
    6TRP    HH2  380   9.598   9.669   3.172
    6TRP    CZ3  381   9.409   9.668   3.076
    6TRP    HZ3  382   9.438   9.602   2.996
    6TRP    CE3  383   9.279   9.712   3.078
    6TRP    HE3  384   9.223   9.686   2.990
    6TRP    CD2  385   9.231   9.816   3.162
    6TRP      C  386   8.927   9.722   3.293
    6TRP      O  387   8.862   9.783   3.375
    7TRP      N  388   9.009   9.622   3.332
    7TRP      H  389   9.045   9.563   3.257
    7TRP     CA  390   9.052   9.615   3.470
    7TRP     HA  391   9.014   9.696   3.531
    7TRP     CB  392   8.982   9.492   3.528
    7TRP    HB2  393   8.874   9.489   3.509
    7TRP    HB3  394   9.024   9.402   3.484
    7TRP     CG  395   8.998   9.477   3.671
    7TRP    CD1  396   9.028   9.366   3.736
    7TRP    HD1  397   9.050   9.273   3.685
    7TRP    NE1  398   9.033   9.393   3.870
    7TRP    HE1  399   9.059   9.327   3.941
    7TRP    CE2  400   8.988   9.522   3.904
    7TRP    CZ2  401   8.964   9.586   4.029
    7TRP    HZ2  402   8.984   9.534   4.122
    7TRP    CH2  403   8.901   9.713   4.025
    7TRP    HH2  404   8.863   9.754   4.118
    7TRP    CZ3  405   8.854   9.761   3.899
    7TRP    HZ3  406   8.787   9.847   3.898
    7TRP    CE3  407   8.890   9.699   3.778
    7TRP    HE3  408   8.849   9.736   3.685
    7TRP    CD2  409   8.956   9.574   3.776
    7TRP      C  410   9.203   9.612   3.474
    7TRP      O  411   9.264   9.534   3.406
    8PRO      N  412   9.266   9.687   3.568
    8PRO     CD  413   9.217   9.809   3.637
    8PRO    HD2  414   9.179   9.777   3.733
    8PRO    HD3  415   9.144   9.857   3.572
    8PRO     CG  416   9.343   9.890   3.670
    8PRO    HG2  417   9.308   9.956   3.750
    8PRO    HG3  418   9.378   9.945   3.583
    8PRO     CB  419   9.445   9.782   3.702
    8PRO    HB2  420   9.430   9.742   3.801
    8PRO    HB3  421   9.542   9.826   3.685
    8PRO     CA  422   9.409   9.679   3.596
    8PRO     HA  423   9.461   9.699   3.502
    8PRO      C  424   9.462   9.540   3.646
    8PRO      O  425   9.581   9.523   3.673
    9TRP      N  426   9.383   9.433   3.638
    9TRP      H  427   9.289   9.446   3.607
    9TRP     CA  428   9.418   9.292   3.664
    9TRP     HA  429   9.523   9.267   3.655
    9TRP     CB  430   9.389   9.270   3.814
    9TRP    HB2  431   9.445   9.336   3.879
    9TRP    HB3  432   9.282   9.286   3.830
    9TRP     CG  433   9.417   9.134   3.870
    9TRP    CD1  434   9.327   9.045   3.920
    9TRP    HD1  435   9.222   9.066   3.936
    9TRP    NE1  436   9.394   8.935   3.975
    9TRP    HE1  437   9.353   8.869   4.039
    9TRP    CE2  438   9.530   8.940   3.942
    9TRP    CZ2  439   9.636   8.849   3.957
    9TRP    HZ2  440   9.622   8.755   4.007
    9TRP    CH2  441   9.757   8.883   3.904
    9TRP    HH2  442   9.838   8.812   3.920
    9TRP    CZ3  443   9.780   9.007   3.854
    9TRP    HZ3  444   9.875   9.023   3.806
    9TRP    CE3  445   9.680   9.102   3.840
    9TRP    HE3  446   9.704   9.195   3.793
    9TRP    CD2  447   9.548   9.067   3.881
    9TRP      C  448   9.346   9.199   3.568
    9TRP      O  449   9.243   9.233   3.524
   10ARG      N  450   9.395   9.076   3.561
   10ARG      H  451   9.450   9.050   3.641
   10ARG     CA  452   9.333   8.962   3.489
   10ARG     HA  453   9.307   8.995   3.389
   10ARG     CB  454   9.421   8.835   3.476
   10ARG    HB2  455   9.415   8.770   3.564
   10ARG    HB3  456   9.386   8.782   3.387
   10ARG     CG  457   9.570   8.863   3.464
   10ARG    HG2  458   9.596   8.934   3.386
   10ARG    HG3  459   9.602   8.905   3.558
   10ARG     CD  460   9.654   8.740   3.439
   10ARG    HD2  461   9.617   8.666   3.509
   10ARG    HD3  462   9.622   8.690   3.347
   10ARG     NE  463   9.801   8.779   3.448
   10ARG     HE  464   9.835   8.855   3.393
   10ARG     CZ  465   9.887   8.732   3.529
   10ARG    NH1  466   9.859   8.645   3.624
   10ARG   HH11  467   9.764   8.611   3.635
   10ARG   HH12  468   9.937   8.604   3.672
   10ARG    NH2  469  10.012   8.768   3.524
   10ARG   HH21  470  10.021   8.867   3.510
   10ARG   HH22  471  10.065   8.724   3.597
   10ARG      C  472   9.193   8.927   3.543
   10ARG      O  473   9.157   8.952   3.657
   11ARG      N  474   9.109   8.871   3.455
   11ARG      H  475   9.156   8.838   3.372
   11ARG     CA  476   8.968   8.830   3.474
   11ARG     HA  477   8.947   8.784   3.570
   11ARG     CB  478   8.865   8.947   3.455
   11ARG    HB2  479   8.888   9.017   3.374
   11ARG    HB3  480   8.761   8.919   3.438
   11ARG     CG  481   8.864   9.041   3.576
   11ARG    HG2  482   8.822   8.989   3.662
   11ARG    HG3  483   8.961   9.079   3.604
   11ARG     CD  484   8.778   9.161   3.543
   11ARG    HD2  485   8.792   9.233   3.623
   11ARG    HD3  486   8.816   9.215   3.456
   11ARG     NE  487   8.633   9.123   3.525
   11ARG     HE  488   8.620   9.092   3.430
   11ARG     CZ  489   8.554   9.077   3.623
   11ARG    NH1  490   8.587   9.102   3.747
   11ARG   HH11  491   8.671   9.156   3.759
   11ARG   HH12  492   8.521   9.076   3.819
   11ARG    NH2  493   8.446   9.016   3.599
   11ARG   HH21  494   8.410   9.002   3.506
   11ARG   HH22  495   8.408   8.966   3.678
   11ARG      C  496   8.934   8.732   3.365
   11ARG      O  497   8.999   8.720   3.263
   12LYS      N  498   8.830   8.653   3.395
   12LYS      H  499   8.773   8.686   3.472
   12LYS     CA  500   8.769   8.553   3.306
   12LYS     HA  501   8.795   8.577   3.203
   12LYS     CB  502   8.823   8.411   3.340
   12LYS    HB2  503   8.784   8.395   3.440
   12LYS    HB3  504   8.773   8.341   3.273
   12LYS     CG  505   8.975   8.387   3.336
   12LYS    HG2  506   9.011   8.427   3.241
   12LYS    HG3  507   9.029   8.453   3.403
   12LYS     CD  508   9.022   8.242   3.361
   12LYS    HD2  509   8.955   8.191   3.292
   12LYS    HD3  510   9.127   8.228   3.336
   12LYS     CE  511   8.980   8.185   3.496
   12LYS    HE2  512   9.025   8.234   3.581
   12LYS    HE3  513   8.874   8.199   3.516
   12LYS     NZ  514   8.997   8.039   3.486
   12LYS    HZ1  515   9.095   8.015   3.498
   12LYS    HZ2  516   8.953   7.996   3.567
   12LYS    HZ3  517   8.949   8.000   3.406
   12LYS      C  518   8.611   8.552   3.308
   12LYS      O  519   8.554   8.593   3.406
   13NHE      N  520   8.551   8.491   3.210
   13NHE    HN1  521   8.611   8.462   3.133
   13NHE    HN2  522   8.451   8.483   3.214
    1ILE      N  523   6.388  10.903  10.760
    1ILE     H1  524   6.330  10.985  10.771
    1ILE     H2  525   6.367  10.832  10.828
    1ILE     H3  526   6.374  10.854  10.672
    1ILE     CA  527   6.530  10.944  10.776
    1ILE     HA  528   6.591  10.853  10.779
    1ILE     CB  529   6.589  11.024  10.660
    1ILE     HB  530   6.692  11.043  10.692
    1ILE    CG2  531   6.595  10.925  10.543
    1ILE   HG21  532   6.503  10.901  10.489
    1ILE   HG22  533   6.653  10.965  10.460
    1ILE   HG23  534   6.654  10.838  10.570
    1ILE    CG1  535   6.507  11.148  10.627
    1ILE   HG12  536   6.475  11.198  10.718
    1ILE   HG13  537   6.423  11.127  10.559
    1ILE    CD1  538   6.608  11.245  10.567
    1ILE   HD11  539   6.566  11.344  10.550
    1ILE   HD12  540   6.691  11.252  10.637
    1ILE   HD13  541   6.644  11.213  10.470
    1ILE      C  542   6.551  11.006  10.913
    1ILE      O  543   6.456  11.075  10.959
    2LEU      N  544   6.672  10.990  10.967
    2LEU      H  545   6.739  10.944  10.909
    2LEU     CA  546   6.709  11.048  11.097
    2LEU     HA  547   6.624  11.035  11.164
    2LEU     CB  548   6.835  10.975  11.154
    2LEU    HB2  549   6.918  10.987  11.085
    2LEU    HB3  550   6.864  11.013  11.252
    2LEU     CG  551   6.825  10.824  11.163
    2LEU     HG  552   6.805  10.766  11.074
    2LEU    CD1  553   6.952  10.769  11.228
    2LEU   HD11  554   6.985  10.820  11.318
    2LEU   HD12  555   6.929  10.663  11.247
    2LEU   HD13  556   7.037  10.758  11.161
    2LEU    CD2  557   6.704  10.797  11.253
    2LEU   HD21  558   6.614  10.814  11.192
    2LEU   HD22  559   6.712  10.692  11.284
    2LEU   HD23  560   6.707  10.855  11.345
    2LEU      C  561   6.735  11.201  11.079
    2LEU      O  562   6.780  11.245  10.975
    3ARG      N  563   6.704  11.287  11.178
    3ARG      H  564   6.655  11.250  11.258
    3ARG     CA  565   6.732  11.431  11.176
    3ARG     HA  566   6.731  11.453  11.070
    3ARG     CB  567   6.609  11.499  11.238
    3ARG    HB2  568   6.606  11.473  11.343
    3ARG    HB3  569   6.619  11.607  11.225
    3ARG     CG  570   6.472  11.471  11.174
    3ARG    HG2  571   6.442  11.369  11.195
    3ARG    HG3  572   6.397  11.527  11.231
    3ARG     CD  573   6.457  11.502  11.023
    3ARG    HD2  574   6.462  11.610  11.004
    3ARG    HD3  575   6.536  11.469  10.957
    3ARG     NE  576   6.321  11.464  10.964
    3ARG     HE  577   6.247  11.448  11.030
    3ARG     CZ  578   6.294  11.458  10.835
    3ARG    NH1  579   6.386  11.469  10.744
    3ARG   HH11  580   6.470  11.516  10.771
    3ARG   HH12  581   6.351  11.456  10.650
    3ARG    NH2  582   6.169  11.444  10.802
    3ARG   HH21  583   6.099  11.424  10.873
    3ARG   HH22  584   6.157  11.407  10.710
    3ARG      C  585   6.874  11.474  11.215
    3ARG      O  586   6.904  11.594  11.212
    4TRP      N  587   6.964  11.375  11.234
    4TRP      H  588   6.934  11.284  11.204
    4TRP     CA  589   7.110  11.402  11.241
    4TRP     HA  590   7.126  11.510  11.225
    4TRP     CB  591   7.154  11.368  11.386
    4TRP    HB2  592   7.261  11.355  11.392
    4TRP    HB3  593   7.136  11.456  11.449
    4TRP     CG  594   7.092  11.231  11.445
    4TRP    CD1  595   7.139  11.110  11.400
    4TRP    HD1  596   7.199  11.091  11.313
    4TRP    NE1  597   7.083  11.012  11.478
    4TRP    HE1  598   7.108  10.914  11.485
    4TRP    CE2  599   6.989  11.062  11.570
    4TRP    CZ2  600   6.898  11.012  11.663
    4TRP    HZ2  601   6.887  10.907  11.677
    4TRP    CH2  602   6.816  11.093  11.743
    4TRP    HH2  603   6.752  11.053  11.820
    4TRP    CZ3  604   6.820  11.234  11.723
    4TRP    HZ3  605   6.754  11.306  11.770
    4TRP    CE3  606   6.908  11.283  11.626
    4TRP    HE3  607   6.925  11.389  11.614
    4TRP    CD2  608   6.997  11.203  11.551
    4TRP      C  609   7.189  11.331  11.124
    4TRP      O  610   7.135  11.238  11.067
    5PRO      N  611   7.314  11.377  11.088
    5PRO     CD  612   7.385  11.489  11.137
    5PRO    HD2  613   7.387  11.495  11.246
    5PRO    HD3  614   7.340  11.582  11.102
    5PRO     CG  615   7.527  11.480  11.081
    5PRO    HG2  616   7.585  11.414  11.146
    5PRO    HG3  617   7.575  11.577  11.066
    5PRO     CB  618   7.509  11.392  10.947
    5PRO    HB2  619   7.599  11.335  10.923
    5PRO    HB3  620   7.475  11.460  10.869
    5PRO     CA  621   7.388  11.299  10.984
    5PRO     HA  622   7.321  11.296  10.899
    5PRO      C  623   7.423  11.159  11.032
    5PRO      O  624   7.483  11.138  11.138
    6TRP      N  625   7.387  11.068  10.944
    6TRP      H  626   7.345  11.098  10.858
    6TRP     CA  627   7.399  10.919  10.964
    6TRP     HA  628   7.406  10.906  11.072
    6TRP     CB  629   7.270  10.841  10.937
    6TRP    HB2  630   7.191  10.873  11.007
    6TRP    HB3  631   7.239  10.858  10.835
    6TRP     CG  632   7.298  10.694  10.951
    6TRP    CD1  633   7.291  10.606  10.847
    6TRP    HD1  634   7.275  10.633  10.743
    6TRP    NE1  635   7.325  10.486  10.885
    6TRP    HE1  636   7.315  10.401  10.832
    6TRP    CE2  637   7.346  10.486  11.022
    6TRP    CZ2  638   7.384  10.379  11.113
    6TRP    HZ2  639   7.390  10.273  11.092
    6TRP    CH2  640   7.406  10.408  11.248
    6TRP    HH2  641   7.433  10.331  11.319
    6TRP    CZ3  642   7.388  10.537  11.293
    6TRP    HZ3  643   7.388  10.561  11.398
    6TRP    CE3  644   7.364  10.639  11.204
    6TRP    HE3  645   7.333  10.731  11.251
    6TRP    CD2  646   7.339  10.620  11.066
    6TRP      C  647   7.516  10.855  10.888
    6TRP      O  648   7.523  10.863  10.767
    7TRP      N  649   7.612  10.792  10.959
    7TRP      H  650   7.609  10.807  11.059
    7TRP     CA  651   7.700  10.699  10.892
    7TRP     HA  652   7.678  10.687  10.786
    7TRP     CB  653   7.837  10.768  10.890
    7TRP    HB2  654   7.835  10.870  10.853
    7TRP    HB3  655   7.877  10.771  10.991
    7TRP     CG  656   7.937  10.698  10.812
    7TRP    CD1  657   8.061  10.672  10.846
    7TRP    HD1  658   8.101  10.698  10.944
    7TRP    NE1  659   8.123  10.606  10.744
    7TRP    HE1  660   8.217  10.570  10.747
    7TRP    CE2  661   8.048  10.599  10.626
    7TRP    CZ2  662   8.077  10.552  10.495
    7TRP    HZ2  663   8.174  10.509  10.472
    7TRP    CH2  664   7.980  10.577  10.394
    7TRP    HH2  665   8.009  10.561  10.291
    7TRP    CZ3  666   7.867  10.659  10.428
    7TRP    HZ3  667   7.805  10.696  10.348
    7TRP    CE3  668   7.838  10.693  10.561
    7TRP    HE3  669   7.754  10.758  10.581
    7TRP    CD2  670   7.929  10.667  10.666
    7TRP      C  671   7.694  10.566  10.963
    7TRP      O  672   7.708  10.560  11.082
    8PRO      N  673   7.690  10.453  10.887
    8PRO     CD  674   7.641  10.437  10.748
    8PRO    HD2  675   7.728  10.439  10.684
    8PRO    HD3  676   7.568  10.516  10.728
    8PRO     CG  677   7.589  10.293  10.740
    8PRO    HG2  678   7.591  10.274  10.632
    8PRO    HG3  679   7.489  10.285  10.783
    8PRO     CB  680   7.686  10.218  10.830
    8PRO    HB2  681   7.780  10.200  10.780
    8PRO    HB3  682   7.634  10.128  10.862
    8PRO     CA  683   7.703  10.319  10.942
    8PRO     HA  684   7.626  10.307  11.017
    8PRO      C  685   7.839  10.286  11.014
    8PRO      O  686   7.860  10.175  11.062
    9TRP      N  687   7.923  10.385  11.043
    9TRP      H  688   7.900  10.478  11.011
    9TRP     CA  689   8.046  10.379  11.123
    9TRP     HA  690   8.053  10.297  11.194
    9TRP     CB  691   8.159  10.349  11.023
    9TRP    HB2  692   8.144  10.256  10.968
    9TRP    HB3  693   8.164  10.431  10.951
    9TRP     CG  694   8.297  10.335  11.077
    9TRP    CD1  695   8.404  10.415  11.052
    9TRP    HD1  696   8.406  10.495  10.979
    9TRP    NE1  697   8.519  10.361  11.111
    9TRP    HE1  698   8.614  10.387  11.087
    9TRP    CE2  699   8.486  10.254  11.195
    9TRP    CZ2  700   8.558  10.179  11.287
    9TRP    HZ2  701   8.664  10.193  11.302
    9TRP    CH2  702   8.491  10.086  11.361
    9TRP    HH2  703   8.549  10.026  11.430
    9TRP    CZ3  704   8.361  10.055  11.334
    9TRP    HZ3  705   8.311   9.989  11.403
    9TRP    CE3  706   8.285  10.126  11.241
    9TRP    HE3  707   8.182  10.100  11.230
    9TRP    CD2  708   8.348  10.232  11.170
    9TRP      C  709   8.064  10.506  11.206
    9TRP      O  710   8.018  10.606  11.167
   10ARG      N  711   8.152  10.497  11.305
   10ARG      H  712   8.219  10.422  11.293
   10ARG     CA  713   8.201  10.609  11.388
   10ARG     HA  714   8.115  10.665  11.424
   10ARG     CB  715   8.285  10.569  11.512
   10ARG    HB2  716   8.391  10.555  11.488
   10ARG    HB3  717   8.273  10.649  11.585
   10ARG     CG  718   8.245  10.436  11.575
   10ARG    HG2  719   8.139  10.429  11.599
   10ARG    HG3  720   8.268  10.359  11.504
   10ARG     CD  721   8.320  10.404  11.703
   10ARG    HD2  722   8.424  10.426  11.681
   10ARG    HD3  723   8.304  10.482  11.777
   10ARG     NE  724   8.284  10.262  11.745
   10ARG     HE  725   8.188  10.236  11.754
   10ARG     CZ  726   8.365  10.165  11.759
   10ARG    NH1  727   8.494  10.172  11.732
   10ARG   HH11  728   8.534  10.259  11.699
   10ARG   HH12  729   8.550  10.094  11.762
   10ARG    NH2  730   8.325  10.049  11.802
   10ARG   HH21  731   8.238  10.022  11.759
   10ARG   HH22  732   8.401   9.983  11.803
   10ARG      C  733   8.271  10.718  11.305
   10ARG      O  734   8.325  10.696  11.198
   11ARG      N  735   8.266  10.842  11.356
   11ARG      H  736   8.237  10.843  11.453
   11ARG     CA  737   8.320  10.967  11.300
   11ARG     HA  738   8.418  10.957  11.252
   11ARG     CB  739   8.225  11.037  11.196
   11ARG    HB2  740   8.118  11.032  11.220
   11ARG    HB3  741   8.243  11.142  11.173
   11ARG     CG  742   8.227  10.964  11.061
   11ARG    HG2  743   8.324  10.978  11.014
   11ARG    HG3  744   8.207  10.857  11.067
   11ARG     CD  745   8.119  11.023  10.972
   11ARG    HD2  746   8.112  10.959  10.884
   11ARG    HD3  747   8.020  11.012  11.017
   11ARG     NE  748   8.148  11.166  10.937
   11ARG     HE  749   8.113  11.225  11.012
   11ARG     CZ  750   8.250  11.206  10.861
   11ARG    NH1  751   8.306  11.120  10.780
   11ARG   HH11  752   8.265  11.028  10.780
   11ARG   HH12  753   8.375  11.155  10.716
   11ARG    NH2  754   8.290  11.326  10.860
   11ARG   HH21  755   8.246  11.400  10.913
   11ARG   HH22  756   8.382  11.339  10.818
   11ARG      C  757   8.331  11.067  11.413
   11ARG      O  758   8.272  11.056  11.518
   12LYS      N  759   8.418  11.166  11.388
   12LYS      H  760   8.445  11.175  11.291
   12LYS     CA  761   8.446  11.281  11.475
   12LYS     HA  762   8.361  11.295  11.542
   12LYS     CB  763   8.574  11.255  11.560
   12LYS    HB2  764   8.652  11.252  11.484
   12LYS    HB3  765   8.590  11.344  11.621
   12LYS     CG  766   8.579  11.129  11.650
   12LYS    HG2  767   8.486  11.128  11.706
   12LYS    HG3  768   8.565  11.038  11.593
   12LYS     CD  769   8.704  11.114  11.738
   12LYS    HD2  770   8.705  11.214  11.782
   12LYS    HD3  771   8.692  11.036  11.814
   12LYS     CE  772   8.835  11.110  11.661
   12LYS    HE2  773   8.847  11.022  11.598
   12LYS    HE3  774   8.844  11.191  11.589
   12LYS     NZ  775   8.942  11.136  11.760
   12LYS    HZ1  776   8.961  11.051  11.813
   12LYS    HZ2  777   9.029  11.151  11.710
   12LYS    HZ3  778   8.926  11.220  11.813
   12LYS      C  779   8.459  11.418  11.399
   12LYS      O  780   8.492  11.418  11.282
   13NHE      N  781   8.450  11.527  11.470
   13NHE    HN1  782   8.420  11.513  11.567
   13NHE    HN2  783   8.466  11.614  11.425
    1ILE      N  784   3.465   4.370   8.992
    1ILE     H1  785   3.432   4.422   8.912
    1ILE     H2  786   3.513   4.429   9.057
    1ILE     H3  787   3.391   4.331   9.047
    1ILE     CA  788   3.559   4.266   8.943
    1ILE     HA  789   3.606   4.220   9.031
    1ILE     CB  790   3.494   4.148   8.871
    1ILE     HB  791   3.579   4.084   8.844
    1ILE    CG2  792   3.413   4.075   8.978
    1ILE   HG21  793   3.317   4.117   9.010
    1ILE   HG22  794   3.378   3.978   8.942
    1ILE   HG23  795   3.478   4.045   9.060
    1ILE    CG1  796   3.408   4.193   8.753
    1ILE   HG12  797   3.457   4.272   8.698
    1ILE   HG13  798   3.306   4.219   8.783
    1ILE    CD1  799   3.412   4.074   8.657
    1ILE   HD11  800   3.364   4.097   8.561
    1ILE   HD12  801   3.517   4.049   8.641
    1ILE   HD13  802   3.359   3.988   8.695
    1ILE      C  803   3.675   4.329   8.870
    1ILE      O  804   3.650   4.433   8.802
    2LEU      N  805   3.792   4.265   8.877
    2LEU      H  806   3.790   4.177   8.924
    2LEU     CA  807   3.913   4.312   8.807
    2LEU     HA  808   3.917   4.421   8.819
    2LEU     CB  809   4.040   4.247   8.870
    2LEU    HB2  810   4.032   4.138   8.860
    2LEU    HB3  811   4.132   4.281   8.824
    2LEU     CG  812   4.054   4.261   9.020
    2LEU     HG  813   3.976   4.225   9.086
    2LEU    CD1  814   4.186   4.199   9.065
    2LEU   HD11  815   4.274   4.225   9.005
    2LEU   HD12  816   4.197   4.231   9.170
    2LEU   HD13  817   4.185   4.091   9.078
    2LEU    CD2  818   4.056   4.413   9.046
    2LEU   HD21  819   3.953   4.448   9.036
    2LEU   HD22  820   4.095   4.426   9.147
    2LEU   HD23  821   4.126   4.464   8.980
    2LEU      C  822   3.900   4.279   8.655
    2LEU      O  823   3.840   4.180   8.618
    3ARG      N  824   3.953   4.362   8.563
    3ARG      H  825   3.991   4.449   8.596
    3ARG     CA  826   3.955   4.336   8.418
    3ARG     HA  827   3.868   4.273   8.405
    3ARG     CB  828   3.926   4.470   8.351
    3ARG    HB2  829   4.010   4.536   8.369
    3ARG    HB3  830   3.912   4.453   8.244
    3ARG     CG  831   3.796   4.542   8.389
    3ARG    HG2  832   3.804   4.580   8.491
    3ARG    HG3  833   3.792   4.636   8.333
    3ARG     CD  834   3.664   4.464   8.371
    3ARG    HD2  835   3.642   4.447   8.265
    3ARG    HD3  836   3.661   4.361   8.406
    3ARG     NE  837   3.539   4.538   8.419
    3ARG     HE  838   3.548   4.638   8.433
    3ARG     CZ  839   3.420   4.483   8.436
    3ARG    NH1  840   3.402   4.355   8.429
    3ARG   HH11  841   3.468   4.303   8.377
    3ARG   HH12  842   3.306   4.327   8.451
    3ARG    NH2  843   3.321   4.564   8.459
    3ARG   HH21  844   3.337   4.663   8.476
    3ARG   HH22  845   3.243   4.519   8.503
    3ARG      C  846   4.068   4.244   8.367
    3ARG      O  847   4.073   4.217   8.246
    4TRP      N  848   4.145   4.185   8.460
    4TRP      H  849   4.112   4.192   8.554
    4TRP     CA  850   4.236   4.072   8.426
    4TRP     HA  851   4.222   4.048   8.320
    4TRP     CB  852   4.380   4.123   8.447
    4TRP    HB2  853   4.450   4.041   8.455
    4TRP    HB3  854   4.412   4.174   8.356
    4TRP     CG  855   4.402   4.210   8.581
    4TRP    CD1  856   4.405   4.148   8.704
    4TRP    HD1  857   4.373   4.047   8.727
    4TRP    NE1  858   4.442   4.240   8.797
    4TRP    HE1  859   4.471   4.225   8.893
    4TRP    CE2  860   4.456   4.369   8.744
    4TRP    CZ2  861   4.480   4.498   8.790
    4TRP    HZ2  862   4.494   4.517   8.895
    4TRP    CH2  863   4.488   4.611   8.707
    4TRP    HH2  864   4.515   4.709   8.744
    4TRP    CZ3  865   4.462   4.594   8.568
    4TRP    HZ3  866   4.454   4.674   8.495
    4TRP    CE3  867   4.433   4.465   8.523
    4TRP    HE3  868   4.424   4.442   8.418
    4TRP    CD2  869   4.433   4.350   8.605
    4TRP      C  870   4.195   3.939   8.503
    4TRP      O  871   4.126   3.949   8.603
    5PRO      N  872   4.236   3.817   8.455
    5PRO     CD  873   4.308   3.788   8.336
    5PRO    HD2  874   4.396   3.851   8.322
    5PRO    HD3  875   4.245   3.801   8.249
    5PRO     CG  876   4.349   3.640   8.344
    5PRO    HG2  877   4.441   3.634   8.402
    5PRO    HG3  878   4.357   3.591   8.246
    5PRO     CB  879   4.239   3.576   8.443
    5PRO    HB2  880   4.278   3.491   8.498
    5PRO    HB3  881   4.150   3.556   8.383
    5PRO     CA  882   4.205   3.697   8.538
    5PRO     HA  883   4.097   3.700   8.550
    5PRO      C  884   4.276   3.699   8.672
    5PRO      O  885   4.398   3.714   8.682
    6TRP      N  886   4.193   3.676   8.771
    6TRP      H  887   4.096   3.659   8.750
    6TRP     CA  888   4.229   3.681   8.917
    6TRP     HA  889   4.320   3.740   8.922
    6TRP     CB  890   4.137   3.770   9.002
    6TRP    HB2  891   4.143   3.874   8.969
    6TRP    HB3  892   4.035   3.733   8.995
    6TRP     CG  893   4.178   3.757   9.146
    6TRP    CD1  894   4.098   3.702   9.243
    6TRP    HD1  895   4.003   3.653   9.225
    6TRP    NE1  896   4.160   3.699   9.358
    6TRP    HE1  897   4.119   3.676   9.447
    6TRP    CE2  898   4.281   3.764   9.346
    6TRP    CZ2  899   4.386   3.789   9.444
    6TRP    HZ2  900   4.382   3.773   9.551
    6TRP    CH2  901   4.505   3.852   9.404
    6TRP    HH2  902   4.584   3.873   9.474
    6TRP    CZ3  903   4.518   3.891   9.273
    6TRP    HZ3  904   4.600   3.954   9.240
    6TRP    CE3  905   4.424   3.856   9.179
    6TRP    HE3  906   4.435   3.907   9.085
    6TRP    CD2  907   4.301   3.794   9.209
    6TRP      C  908   4.243   3.543   8.982
    6TRP      O  909   4.150   3.464   8.984
    7TRP      N  910   4.362   3.509   9.035
    7TRP      H  911   4.439   3.571   9.013
    7TRP     CA  912   4.369   3.399   9.129
    7TRP     HA  913   4.272   3.354   9.151
    7TRP     CB  914   4.443   3.287   9.056
    7TRP    HB2  915   4.404   3.266   8.956
    7TRP    HB3  916   4.548   3.316   9.042
    7TRP     CG  917   4.447   3.162   9.127
    7TRP    CD1  918   4.550   3.083   9.145
    7TRP    HD1  919   4.650   3.109   9.110
    7TRP    NE1  920   4.512   2.973   9.216
    7TRP    HE1  921   4.573   2.900   9.248
    7TRP    CE2  922   4.373   2.963   9.236
    7TRP    CZ2  923   4.290   2.862   9.292
    7TRP    HZ2  924   4.333   2.771   9.332
    7TRP    CH2  925   4.149   2.880   9.279
    7TRP    HH2  926   4.086   2.795   9.301
    7TRP    CZ3  927   4.102   2.989   9.199
    7TRP    HZ3  928   3.997   2.990   9.171
    7TRP    CE3  929   4.188   3.091   9.156
    7TRP    HE3  930   4.149   3.170   9.093
    7TRP    CD2  931   4.328   3.081   9.170
    7TRP      C  932   4.434   3.448   9.257
    7TRP      O  933   4.538   3.508   9.253
    8PRO      N  934   4.381   3.408   9.375
    8PRO     CD  935   4.243   3.365   9.404
    8PRO    HD2  936   4.243   3.256   9.404
    8PRO    HD3  937   4.177   3.410   9.330
    8PRO     CG  938   4.218   3.403   9.550
    8PRO    HG2  939   4.134   3.338   9.578
    8PRO    HG3  940   4.194   3.509   9.560
    8PRO     CB  941   4.354   3.380   9.615
    8PRO    HB2  942   4.372   3.275   9.632
    8PRO    HB3  943   4.357   3.442   9.703
    8PRO     CA  944   4.445   3.431   9.504
    8PRO     HA  945   4.460   3.539   9.513
    8PRO      C  946   4.586   3.367   9.525
    8PRO      O  947   4.647   3.380   9.632
    9TRP      N  948   4.650   3.315   9.421
    9TRP      H  949   4.603   3.313   9.332
    9TRP     CA  950   4.788   3.264   9.415
    9TRP     HA  951   4.856   3.302   9.491
    9TRP     CB  952   4.778   3.114   9.449
    9TRP    HB2  953   4.733   3.094   9.546
    9TRP    HB3  954   4.717   3.066   9.372
    9TRP     CG  955   4.905   3.035   9.453
    9TRP    CD1  956   4.942   2.934   9.370
    9TRP    HD1  957   4.877   2.888   9.297
    9TRP    NE1  958   5.062   2.877   9.415
    9TRP    HE1  959   5.097   2.786   9.387
    9TRP    CE2  960   5.118   2.956   9.516
    9TRP    CZ2  961   5.242   2.954   9.581
    9TRP    HZ2  962   5.315   2.877   9.561
    9TRP    CH2  963   5.269   3.053   9.671
    9TRP    HH2  964   5.364   3.048   9.722
    9TRP    CZ3  965   5.172   3.142   9.709
    9TRP    HZ3  966   5.204   3.223   9.772
    9TRP    CE3  967   5.048   3.146   9.649
    9TRP    HE3  968   4.979   3.223   9.680
    9TRP    CD2  969   5.018   3.052   9.546
    9TRP      C  970   4.855   3.297   9.282
    9TRP      O  971   4.786   3.309   9.188
   10ARG      N  972   4.987   3.286   9.280
   10ARG      H  973   5.023   3.226   9.353
   10ARG     CA  974   5.072   3.295   9.159
   10ARG     HA  975   5.044   3.384   9.105
   10ARG     CB  976   5.225   3.302   9.186
   10ARG    HB2  977   5.270   3.202   9.198
   10ARG    HB3  978   5.269   3.354   9.101
   10ARG     CG  979   5.263   3.373   9.315
   10ARG    HG2  980   5.219   3.473   9.325
   10ARG    HG3  981   5.227   3.313   9.396
   10ARG     CD  982   5.412   3.390   9.334
   10ARG    HD2  983   5.455   3.293   9.309
   10ARG    HD3  984   5.455   3.446   9.251
   10ARG     NE  985   5.437   3.445   9.473
   10ARG     HE  986   5.389   3.528   9.502
   10ARG     CZ  987   5.505   3.391   9.566
   10ARG    NH1  988   5.560   3.271   9.555
   10ARG   HH11  989   5.550   3.218   9.470
   10ARG   HH12  990   5.623   3.244   9.628
   10ARG    NH2  991   5.526   3.450   9.679
   10ARG   HH21  992   5.442   3.494   9.713
   10ARG   HH22  993   5.578   3.390   9.742
   10ARG      C  994   5.038   3.187   9.054
   10ARG      O  995   4.987   3.081   9.082
   11ARG      N  996   5.065   3.220   8.927
   11ARG      H  997   5.125   3.301   8.919
   11ARG     CA  998   5.041   3.142   8.804
   11ARG     HA  999   5.062   3.035   8.814
   11ARG     CB 1000   4.895   3.155   8.748
   11ARG    HB2 1001   4.851   3.255   8.754
   11ARG    HB3 1002   4.878   3.126   8.644
   11ARG     CG 1003   4.795   3.074   8.830
   11ARG    HG2 1004   4.814   2.967   8.817
   11ARG    HG3 1005   4.798   3.095   8.937
   11ARG     CD 1006   4.654   3.107   8.783
   11ARG    HD2 1007   4.586   3.061   8.854
   11ARG    HD3 1008   4.632   3.213   8.795
   11ARG     NE 1009   4.631   3.060   8.642
   11ARG     HE 1010   4.665   3.132   8.579
   11ARG     CZ 1011   4.627   2.933   8.604
   11ARG    NH1 1012   4.603   2.841   8.694
   11ARG   HH11 1013   4.588   2.875   8.787
   11ARG   HH12 1014   4.591   2.746   8.661
   11ARG    NH2 1015   4.640   2.898   8.483
   11ARG   HH21 1016   4.649   2.964   8.407
   11ARG   HH22 1017   4.660   2.800   8.469
   11ARG      C 1018   5.129   3.199   8.696
   11ARG      O 1019   5.178   3.309   8.701
   12LYS      N 1020   5.152   3.112   8.596
   12LYS      H 1021   5.089   3.033   8.593
   12LYS     CA 1022   5.228   3.141   8.473
   12LYS     HA 1023   5.230   3.249   8.458
   12LYS     CB 1024   5.374   3.089   8.487
   12LYS    HB2 1025   5.360   2.982   8.493
   12LYS    HB3 1026   5.425   3.111   8.393
   12LYS     CG 1027   5.460   3.141   8.605
   12LYS    HG2 1028   5.450   3.249   8.606
   12LYS    HG3 1029   5.414   3.119   8.701
   12LYS     CD 1030   5.607   3.093   8.608
   12LYS    HD2 1031   5.633   3.117   8.504
   12LYS    HD3 1032   5.666   3.149   8.680
   12LYS     CE 1033   5.624   2.942   8.613
   12LYS    HE2 1034   5.588   2.896   8.704
   12LYS    HE3 1035   5.564   2.891   8.537
   12LYS     NZ 1036   5.764   2.915   8.575
   12LYS    HZ1 1037   5.825   2.932   8.654
   12LYS    HZ2 1038   5.774   2.815   8.560
   12LYS    HZ3 1039   5.789   2.958   8.487
   12LYS      C 1040   5.163   3.083   8.341
   12LYS      O 1041   5.090   2.987   8.350
   13NHE      N 1042   5.205   3.131   8.228
   13NHE    HN1 1043   5.265   3.213   8.235
   13NHE    HN2 1044   5.170   3.090   8.144
    1ILE      N 1045   5.794   9.061   6.331
    1ILE     H1 1046   5.729   9.013   6.392
    1ILE     H2 1047   5.816   9.153   6.365
    1ILE     H3 1048   5.885   9.017   6.326
    1ILE     CA 1049   5.732   9.074   6.197
    1ILE     HA 1050   5.796   9.139   6.137
    1ILE     CB 1051   5.725   8.944   6.116
    1ILE     HB 1052   5.677   8.975   6.022
    1ILE    CG2 1053   5.870   8.909   6.084
    1ILE   HG21 1054   5.933   8.865   6.162
    1ILE   HG22 1055   5.877   8.830   6.010
    1ILE   HG23 1056   5.918   8.992   6.031
    1ILE    CG1 1057   5.654   8.833   6.191
    1ILE   HG12 1058   5.566   8.871   6.242
    1ILE   HG13 1059   5.720   8.777   6.258
    1ILE    CD1 1060   5.594   8.745   6.081
    1ILE   HD11 1061   5.529   8.667   6.120
    1ILE   HD12 1062   5.538   8.810   6.014
    1ILE   HD13 1063   5.670   8.692   6.025
    1ILE      C 1064   5.601   9.150   6.206
    1ILE      O 1065   5.532   9.132   6.310
    2LEU      N 1066   5.568   9.223   6.099
    2LEU      H 1067   5.629   9.214   6.020
    2LEU     CA 1068   5.442   9.299   6.091
    2LEU     HA 1069   5.426   9.346   6.189
    2LEU     CB 1070   5.452   9.407   5.980
    2LEU    HB2 1071   5.470   9.358   5.884
    2LEU    HB3 1072   5.362   9.468   5.972
    2LEU     CG 1073   5.571   9.500   5.989
    2LEU     HG 1074   5.672   9.460   5.989
    2LEU    CD1 1075   5.563   9.605   5.878
    2LEU   HD11 1076   5.465   9.652   5.865
    2LEU   HD12 1077   5.641   9.678   5.903
    2LEU   HD13 1078   5.597   9.572   5.780
    2LEU    CD2 1079   5.559   9.568   6.126
    2LEU   HD21 1080   5.591   9.495   6.201
    2LEU   HD22 1081   5.626   9.655   6.123
    2LEU   HD23 1082   5.459   9.608   6.143
    2LEU      C 1083   5.324   9.200   6.065
    2LEU      O 1084   5.341   9.099   6.000
    3ARG      N 1085   5.202   9.224   6.118
    3ARG      H 1086   5.194   9.301   6.182
    3ARG     CA 1087   5.082   9.143   6.092
    3ARG     HA 1088   5.125   9.045   6.070
    3ARG     CB 1089   5.009   9.133   6.225
    3ARG    HB2 1090   4.971   9.231   6.251
    3ARG    HB3 1091   4.927   9.062   6.215
    3ARG     CG 1092   5.086   9.075   6.346
    3ARG    HG2 1093   5.161   9.146   6.378
    3ARG    HG3 1094   5.019   9.076   6.432
    3ARG     CD 1095   5.148   8.935   6.329
    3ARG    HD2 1096   5.070   8.858   6.322
    3ARG    HD3 1097   5.202   8.914   6.237
    3ARG     NE 1098   5.231   8.887   6.449
    3ARG     HE 1099   5.217   8.936   6.535
    3ARG     CZ 1100   5.312   8.783   6.448
    3ARG    NH1 1101   5.342   8.720   6.339
    3ARG   HH11 1102   5.277   8.727   6.263
    3ARG   HH12 1103   5.411   8.646   6.353
    3ARG    NH2 1104   5.359   8.745   6.563
    3ARG   HH21 1105   5.345   8.801   6.646
    3ARG   HH22 1106   5.443   8.691   6.554
    3ARG      C 1107   5.006   9.173   5.962
    3ARG      O 1108   4.905   9.105   5.934
    4TRP      N 1109   5.063   9.260   5.877
    4TRP      H 1110   5.159   9.284   5.898
    4TRP     CA 1111   5.017   9.274   5.735
    4TRP     HA 1112   4.938   9.201   5.719
    4TRP     CB 1113   4.958   9.416   5.723
    4TRP    HB2 1114   4.951   9.446   5.619
    4TRP    HB3 1115   4.854   9.413   5.756
    4TRP     CG 1116   5.044   9.532   5.794
    4TRP    CD1 1117   5.162   9.575   5.737
    4TRP    HD1 1118   5.219   9.526   5.659
    4TRP    NE1 1119   5.205   9.684   5.807
    4TRP    HE1 1120   5.278   9.751   5.782
    4TRP    CE2 1121   5.125   9.714   5.918
    4TRP    CZ2 1122   5.126   9.801   6.026
    4TRP    HZ2 1123   5.206   9.872   6.039
    4TRP    CH2 1124   5.026   9.805   6.124
    4TRP    HH2 1125   5.024   9.879   6.203
    4TRP    CZ3 1126   4.922   9.708   6.119
    4TRP    HZ3 1127   4.846   9.693   6.195
    4TRP    CE3 1128   4.925   9.616   6.013
    4TRP    HE3 1129   4.843   9.548   5.995
    4TRP    CD2 1130   5.021   9.618   5.909
    4TRP      C 1131   5.132   9.234   5.632
    4TRP      O 1132   5.247   9.234   5.671
    5PRO      N 1133   5.097   9.199   5.504
    5PRO     CD 1134   4.969   9.185   5.446
    5PRO    HD2 1135   4.902   9.269   5.468
    5PRO    HD3 1136   4.919   9.096   5.484
    5PRO     CG 1137   4.988   9.170   5.295
    5PRO    HG2 1138   4.997   9.269   5.252
    5PRO    HG3 1139   4.912   9.109   5.246
    5PRO     CB 1140   5.138   9.111   5.283
    5PRO    HB2 1141   5.186   9.140   5.190
    5PRO    HB3 1142   5.132   9.004   5.301
    5PRO     CA 1143   5.209   9.174   5.408
    5PRO     HA 1144   5.269   9.097   5.456
    5PRO      C 1145   5.292   9.300   5.382
    5PRO      O 1146   5.241   9.406   5.345
    6TRP      N 1147   5.420   9.277   5.397
    6TRP      H 1148   5.450   9.184   5.420
    6TRP     CA 1149   5.528   9.381   5.388
    6TRP     HA 1150   5.478   9.476   5.403
    6TRP     CB 1151   5.625   9.383   5.507
    6TRP    HB2 1152   5.570   9.408   5.599
    6TRP    HB3 1153   5.673   9.287   5.516
    6TRP     CG 1154   5.733   9.484   5.479
    6TRP    CD1 1155   5.864   9.451   5.463
    6TRP    HD1 1156   5.903   9.350   5.458
    6TRP    NE1 1157   5.936   9.557   5.436
    6TRP    HE1 1158   6.036   9.562   5.433
    6TRP    CE2 1159   5.856   9.670   5.445
    6TRP    CZ2 1160   5.886   9.810   5.426
    6TRP    HZ2 1161   5.984   9.856   5.414
    6TRP    CH2 1162   5.784   9.905   5.433
    6TRP    HH2 1163   5.802  10.011   5.420
    6TRP    CZ3 1164   5.656   9.863   5.462
    6TRP    HZ3 1165   5.576   9.933   5.485
    6TRP    CE3 1166   5.626   9.729   5.468
    6TRP    HE3 1167   5.529   9.708   5.510
    6TRP    CD2 1168   5.722   9.626   5.463
    6TRP      C 1169   5.608   9.376   5.256
    6TRP      O 1170   5.669   9.277   5.223
    7TRP      N 1171   5.606   9.485   5.176
    7TRP      H 1172   5.538   9.556   5.201
    7TRP     CA 1173   5.708   9.500   5.074
    7TRP     HA 1174   5.781   9.419   5.074
    7TRP     CB 1175   5.635   9.481   4.941
    7TRP    HB2 1176   5.572   9.392   4.937
    7TRP    HB3 1177   5.569   9.567   4.924
    7TRP     CG 1178   5.722   9.476   4.826
    7TRP    CD1 1179   5.707   9.539   4.712
    7TRP    HD1 1180   5.625   9.609   4.694
    7TRP    NE1 1181   5.810   9.506   4.628
    7TRP    HE1 1182   5.825   9.545   4.536
    7TRP    CE2 1183   5.892   9.403   4.677
    7TRP    CZ2 1184   6.001   9.331   4.619
    7TRP    HZ2 1185   6.036   9.354   4.519
    7TRP    CH2 1186   6.051   9.220   4.694
    7TRP    HH2 1187   6.117   9.152   4.644
    7TRP    CZ3 1188   5.980   9.181   4.812
    7TRP    HZ3 1189   6.004   9.085   4.856
    7TRP    CE3 1190   5.881   9.263   4.869
    7TRP    HE3 1191   5.828   9.228   4.957
    7TRP    CD2 1192   5.831   9.376   4.802
    7TRP      C 1193   5.777   9.633   5.093
    7TRP      O 1194   5.713   9.734   5.105
    8PRO      N 1195   5.912   9.637   5.080
    8PRO     CD 1196   6.010   9.528   5.098
    8PRO    HD2 1197   6.033   9.490   4.999
    8PRO    HD3 1198   5.967   9.454   5.166
    8PRO     CG 1199   6.139   9.596   5.144
    8PRO    HG2 1200   6.215   9.522   5.120
    8PRO    HG3 1201   6.135   9.619   5.251
    8PRO     CB 1202   6.137   9.728   5.067
    8PRO    HB2 1203   6.167   9.714   4.965
    8PRO    HB3 1204   6.198   9.797   5.124
    8PRO     CA 1205   5.989   9.761   5.076
    8PRO     HA 1206   5.966   9.816   5.168
    8PRO      C 1207   5.956   9.860   4.959
    8PRO      O 1208   6.017   9.967   4.946
    9TRP      N 1209   5.848   9.840   4.884
    9TRP      H 1210   5.794   9.756   4.901
    9TRP     CA 1211   5.791   9.927   4.781
    9TRP     HA 1212   5.817  10.033   4.788
    9TRP     CB 1213   5.857   9.883   4.649
    9TRP    HB2 1214   5.966   9.891   4.650
    9TRP    HB3 1215   5.830   9.779   4.630
    9TRP     CG 1216   5.819   9.958   4.525
    9TRP    CD1 1217   5.753   9.908   4.416
    9TRP    HD1 1218   5.730   9.804   4.400
    9TRP    NE1 1219   5.748  10.005   4.315
    9TRP    HE1 1220   5.728   9.987   4.218
    9TRP    CE2 1221   5.792  10.129   4.364
    9TRP    CZ2 1222   5.792  10.259   4.312
    9TRP    HZ2 1223   5.758  10.279   4.212
    9TRP    CH2 1224   5.835  10.361   4.392
    9TRP    HH2 1225   5.837  10.460   4.349
    9TRP    CZ3 1226   5.893  10.335   4.513
    9TRP    HZ3 1227   5.915  10.420   4.575
    9TRP    CE3 1228   5.898  10.208   4.568
    9TRP    HE3 1229   5.940  10.197   4.667
    9TRP    CD2 1230   5.843  10.100   4.494
    9TRP      C 1231   5.639   9.923   4.782
    9TRP      O 1232   5.586   9.826   4.821
   10ARG      N 1233   5.578  10.022   4.717
   10ARG      H 1234   5.637  10.066   4.648
   10ARG     CA 1235   5.433  10.031   4.689
   10ARG     HA 1236   5.379  10.013   4.782
   10ARG     CB 1237   5.384  10.167   4.632
   10ARG    HB2 1238   5.395  10.173   4.523
   10ARG    HB3 1239   5.279  10.176   4.661
   10ARG     CG 1240   5.462  10.287   4.683
   10ARG    HG2 1241   5.469  10.293   4.792
   10ARG    HG3 1242   5.562  10.279   4.644
   10ARG     CD 1243   5.406  10.420   4.636
   10ARG    HD2 1244   5.386  10.407   4.531
   10ARG    HD3 1245   5.303  10.431   4.669
   10ARG     NE 1246   5.503  10.530   4.678
   10ARG     HE 1247   5.532  10.537   4.774
   10ARG     CZ 1248   5.563  10.611   4.601
   10ARG    NH1 1249   5.555  10.607   4.469
   10ARG   HH11 1250   5.498  10.537   4.424
   10ARG   HH12 1251   5.594  10.685   4.420
   10ARG    NH2 1252   5.639  10.706   4.647
   10ARG   HH21 1253   5.697  10.673   4.722
   10ARG   HH22 1254   5.681  10.758   4.572
   10ARG      C 1255   5.382   9.913   4.604
   10ARG      O 1256   5.453   9.849   4.529
   11ARG      N 1257   5.253   9.881   4.622
   11ARG      H 1258   5.201   9.952   4.671
   11ARG     CA 1259   5.175   9.772   4.559
   11ARG     HA 1260   5.197   9.756   4.454
   11ARG     CB 1261   5.191   9.633   4.631
   11ARG    HB2 1262   5.195   9.637   4.740
   11ARG    HB3 1263   5.115   9.557   4.611
   11ARG     CG 1264   5.325   9.568   4.599
   11ARG    HG2 1265   5.328   9.538   4.495
   11ARG    HG3 1266   5.411   9.632   4.618
   11ARG     CD 1267   5.342   9.445   4.687
   11ARG    HD2 1268   5.445   9.411   4.675
   11ARG    HD3 1269   5.339   9.471   4.793
   11ARG     NE 1270   5.242   9.339   4.653
   11ARG     HE 1271   5.156   9.359   4.704
   11ARG     CZ 1272   5.238   9.271   4.539
   11ARG    NH1 1273   5.346   9.266   4.465
   11ARG   HH11 1274   5.427   9.313   4.504
   11ARG   HH12 1275   5.345   9.206   4.384
   11ARG    NH2 1276   5.136   9.208   4.500
   11ARG   HH21 1277   5.052   9.200   4.556
   11ARG   HH22 1278   5.136   9.182   4.403
   11ARG      C 1279   5.029   9.806   4.574
   11ARG      O 1280   4.987   9.886   4.654
   12LYS      N 1281   4.951   9.743   4.485
   12LYS      H 1282   4.995   9.664   4.439
   12LYS     CA 1283   4.804   9.750   4.478
   12LYS     HA 1284   4.766   9.782   4.575
   12LYS     CB 1285   4.760   9.854   4.371
   12LYS    HB2 1286   4.795   9.808   4.279
   12LYS    HB3 1287   4.651   9.853   4.369
   12LYS     CG 1288   4.811   9.999   4.383
   12LYS    HG2 1289   4.793  10.030   4.486
   12LYS    HG3 1290   4.919  10.005   4.383
   12LYS     CD 1291   4.756  10.099   4.279
   12LYS    HD2 1292   4.650  10.076   4.289
   12LYS    HD3 1293   4.779  10.202   4.306
   12LYS     CE 1294   4.786  10.062   4.134
   12LYS    HE2 1295   4.891  10.064   4.108
   12LYS    HE3 1296   4.759   9.959   4.112
   12LYS     NZ 1297   4.694  10.143   4.052
   12LYS    HZ1 1298   4.731  10.238   4.043
   12LYS    HZ2 1299   4.698  10.109   3.957
   12LYS    HZ3 1300   4.598  10.134   4.079
   12LYS      C 1301   4.733   9.612   4.451
   12LYS      O 1302   4.795   9.525   4.394
   13NHE      N 1303   4.606   9.604   4.477
   13NHE    HN1 1304   4.566   9.684   4.527
   13NHE    HN2 1305   4.558   9.520   4.453
    1ILE      N 1306  10.687   3.980   7.119
    1ILE     H1 1307  10.775   3.998   7.072
    1ILE     H2 1308  10.608   4.002   7.061
    1ILE     H3 1309  10.672   3.883   7.141
    1ILE     CA 1310  10.682   4.065   7.241
    1ILE     HA 1311  10.581   4.056   7.283
    1ILE     CB 1312  10.773   4.021   7.355
    1ILE     HB 1313  10.754   4.095   7.433
    1ILE    CG2 1314  10.715   3.887   7.403
    1ILE   HG21 1315  10.733   3.797   7.344
    1ILE   HG22 1316  10.760   3.855   7.497
    1ILE   HG23 1317  10.611   3.900   7.432
    1ILE    CG1 1318  10.918   4.008   7.312
    1ILE   HG12 1319  10.946   4.091   7.248
    1ILE   HG13 1320  10.941   3.911   7.267
    1ILE    CD1 1321  10.998   4.034   7.440
    1ILE   HD11 1322  11.105   4.041   7.422
    1ILE   HD12 1323  10.961   4.128   7.482
    1ILE   HD13 1324  10.987   3.955   7.512
    1ILE      C 1325  10.693   4.211   7.204
    1ILE      O 1326  10.768   4.239   7.107
    2LEU      N 1327  10.629   4.298   7.284
    2LEU      H 1328  10.586   4.257   7.364
    2LEU     CA 1329  10.635   4.443   7.263
    2LEU     HA 1330  10.626   4.461   7.156
    2LEU     CB 1331  10.518   4.512   7.339
    2LEU    HB2 1332  10.526   4.490   7.446
    2LEU    HB3 1333  10.515   4.620   7.325
    2LEU     CG 1334  10.379   4.458   7.310
    2LEU     HG 1335  10.357   4.354   7.326
    2LEU    CD1 1336  10.275   4.541   7.385
    2LEU   HD11 1337  10.287   4.649   7.379
    2LEU   HD12 1338  10.179   4.507   7.344
    2LEU   HD13 1339  10.261   4.514   7.490
    2LEU    CD2 1340  10.360   4.476   7.158
    2LEU   HD21 1341  10.418   4.397   7.109
    2LEU   HD22 1342  10.253   4.465   7.139
    2LEU   HD23 1343  10.386   4.577   7.125
    2LEU      C 1344  10.774   4.496   7.311
    2LEU      O 1345  10.832   4.443   7.403
    3ARG      N 1346  10.832   4.600   7.248
    3ARG      H 1347  10.788   4.634   7.164
    3ARG     CA 1348  10.958   4.664   7.290
    3ARG     HA 1349  11.009   4.583   7.341
    3ARG     CB 1350  11.034   4.694   7.162
    3ARG    HB2 1351  10.981   4.772   7.107
    3ARG    HB3 1352  11.135   4.728   7.188
    3ARG     CG 1353  11.065   4.577   7.067
    3ARG    HG2 1354  10.973   4.544   7.019
    3ARG    HG3 1355  11.120   4.617   6.981
    3ARG     CD 1356  11.142   4.457   7.126
    3ARG    HD2 1357  11.245   4.484   7.152
    3ARG    HD3 1358  11.109   4.419   7.223
    3ARG     NE 1359  11.161   4.339   7.030
    3ARG     HE 1360  11.147   4.359   6.932
    3ARG     CZ 1361  11.200   4.218   7.064
    3ARG    NH1 1362  11.211   4.182   7.188
    3ARG   HH11 1363  11.224   4.255   7.256
    3ARG   HH12 1364  11.237   4.084   7.199
    3ARG    NH2 1365  11.230   4.137   6.968
    3ARG   HH21 1366  11.210   4.161   6.871
    3ARG   HH22 1367  11.226   4.040   6.995
    3ARG      C 1368  10.947   4.769   7.402
    3ARG      O 1369  11.050   4.824   7.444
    4TRP      N 1370  10.827   4.782   7.462
    4TRP      H 1371  10.759   4.710   7.439
    4TRP     CA 1372  10.810   4.855   7.590
    4TRP     HA 1373  10.909   4.888   7.624
    4TRP     CB 1374  10.725   4.980   7.559
    4TRP    HB2 1375  10.681   5.022   7.649
    4TRP    HB3 1376  10.791   5.059   7.523
    4TRP     CG 1377  10.598   4.953   7.462
    4TRP    CD1 1378  10.487   4.888   7.509
    4TRP    HD1 1379  10.479   4.831   7.601
    4TRP    NE1 1380  10.390   4.894   7.413
    4TRP    HE1 1381  10.292   4.872   7.421
    4TRP    CE2 1382  10.434   4.954   7.294
    4TRP    CZ2 1383  10.386   4.978   7.166
    4TRP    HZ2 1384  10.288   4.944   7.137
    4TRP    CH2 1385  10.459   5.044   7.066
    4TRP    HH2 1386  10.417   5.067   6.969
    4TRP    CZ3 1387  10.593   5.082   7.094
    4TRP    HZ3 1388  10.663   5.123   7.022
    4TRP    CE3 1389  10.643   5.054   7.222
    4TRP    HE3 1390  10.739   5.091   7.255
    4TRP    CD2 1391  10.567   4.994   7.326
    4TRP      C 1392  10.757   4.760   7.706
    4TRP      O 1393  10.703   4.656   7.674
    5PRO      N 1394  10.777   4.796   7.837
    5PRO     CD 1395  10.846   4.907   7.890
    5PRO    HD2 1396  10.819   5.002   7.842
    5PRO    HD3 1397  10.953   4.895   7.877
    5PRO     CG 1398  10.815   4.913   8.040
    5PRO    HG2 1399  10.720   4.964   8.053
    5PRO    HG3 1400  10.896   4.955   8.101
    5PRO     CB 1401  10.779   4.760   8.076
    5PRO    HB2 1402  10.709   4.752   8.159
    5PRO    HB3 1403  10.873   4.706   8.089
    5PRO     CA 1404  10.715   4.708   7.941
    5PRO     HA 1405  10.755   4.609   7.921
    5PRO      C 1406  10.563   4.708   7.934
    5PRO      O 1407  10.497   4.813   7.937
    6TRP      N 1408  10.514   4.586   7.933
    6TRP      H 1409  10.579   4.509   7.939
    6TRP     CA 1410  10.369   4.551   7.917
    6TRP     HA 1411  10.324   4.639   7.873
    6TRP     CB 1412  10.341   4.448   7.807
    6TRP    HB2 1413  10.370   4.488   7.709
    6TRP    HB3 1414  10.394   4.356   7.829
    6TRP     CG 1415  10.194   4.415   7.809
    6TRP    CD1 1416  10.145   4.291   7.841
    6TRP    HD1 1417  10.205   4.207   7.877
    6TRP    NE1 1418  10.015   4.290   7.840
    6TRP    HE1 1419   9.955   4.210   7.846
    6TRP    CE2 1420   9.969   4.413   7.795
    6TRP    CZ2 1421   9.835   4.463   7.774
    6TRP    HZ2 1422   9.742   4.408   7.777
    6TRP    CH2 1423   9.815   4.597   7.735
    6TRP    HH2 1424   9.717   4.638   7.718
    6TRP    CZ3 1425   9.925   4.676   7.713
    6TRP    HZ3 1426   9.917   4.774   7.668
    6TRP    CE3 1427  10.052   4.631   7.744
    6TRP    HE3 1428  10.131   4.694   7.706
    6TRP    CD2 1429  10.081   4.499   7.783
    6TRP      C 1430  10.301   4.508   8.048
    6TRP      O 1431  10.341   4.412   8.111
    7TRP      N 1432  10.197   4.581   8.093
    7TRP      H 1433  10.182   4.669   8.046
    7TRP     CA 1434  10.108   4.523   8.191
    7TRP     HA 1435  10.133   4.420   8.218
    7TRP     CB 1436  10.134   4.600   8.320
    7TRP    HB2 1437  10.239   4.608   8.347
    7TRP    HB3 1438  10.097   4.703   8.309
    7TRP     CG 1439  10.065   4.547   8.436
    7TRP    CD1 1440   9.998   4.615   8.527
    7TRP    HD1 1441   9.982   4.722   8.520
    7TRP    NE1 1442   9.950   4.528   8.621
    7TRP    HE1 1443   9.891   4.553   8.698
    7TRP    CE2 1444   9.999   4.397   8.608
    7TRP    CZ2 1445   9.986   4.280   8.689
    7TRP    HZ2 1446   9.927   4.283   8.780
    7TRP    CH2 1447  10.065   4.168   8.652
    7TRP    HH2 1448  10.073   4.087   8.723
    7TRP    CZ3 1449  10.160   4.183   8.547
    7TRP    HZ3 1450  10.235   4.106   8.533
    7TRP    CE3 1451  10.161   4.297   8.464
    7TRP    HE3 1452  10.237   4.306   8.388
    7TRP    CD2 1453  10.082   4.410   8.493
    7TRP      C 1454   9.966   4.529   8.138
    7TRP      O 1455   9.922   4.633   8.095
    8PRO      N 1456   9.886   4.421   8.156
    8PRO     CD 1457   9.924   4.280   8.175
    8PRO    HD2 1458   9.921   4.260   8.282
    8PRO    HD3 1459  10.022   4.265   8.129
    8PRO     CG 1460   9.809   4.198   8.117
    8PRO    HG2 1461   9.823   4.101   8.166
    8PRO    HG3 1462   9.815   4.192   8.008
    8PRO     CB 1463   9.687   4.282   8.153
    8PRO    HB2 1464   9.660   4.270   8.257
    8PRO    HB3 1465   9.610   4.255   8.082
    8PRO     CA 1466   9.743   4.421   8.128
    8PRO     HA 1467   9.731   4.450   8.023
    8PRO      C 1468   9.655   4.522   8.210
    8PRO      O 1469   9.533   4.528   8.194
    9TRP      N 1470   9.715   4.617   8.282
    9TRP      H 1471   9.815   4.616   8.287
    9TRP     CA 1472   9.653   4.729   8.353
    9TRP     HA 1473   9.555   4.760   8.318
    9TRP     CB 1474   9.624   4.677   8.495
    9TRP    HB2 1475   9.558   4.590   8.497
    9TRP    HB3 1476   9.719   4.651   8.542
    9TRP     CG 1477   9.557   4.772   8.591
    9TRP    CD1 1478   9.610   4.823   8.706
    9TRP    HD1 1479   9.704   4.792   8.749
    9TRP    NE1 1480   9.512   4.896   8.774
    9TRP    HE1 1481   9.517   4.923   8.871
    9TRP    CE2 1482   9.399   4.913   8.693
    9TRP    CZ2 1483   9.282   4.990   8.706
    9TRP    HZ2 1484   9.263   5.049   8.794
    9TRP    CH2 1485   9.194   4.990   8.602
    9TRP    HH2 1486   9.103   5.048   8.616
    9TRP    CZ3 1487   9.209   4.905   8.497
    9TRP    HZ3 1488   9.141   4.918   8.414
    9TRP    CE3 1489   9.321   4.825   8.481
    9TRP    HE3 1490   9.328   4.766   8.392
    9TRP    CD2 1491   9.423   4.830   8.580
    9TRP      C 1492   9.739   4.855   8.345
    9TRP      O 1493   9.855   4.841   8.334
   10ARG      N 1494   9.679   4.968   8.376
   10ARG      H 1495   9.596   4.955   8.432
   10ARG     CA 1496   9.744   5.099   8.394
   10ARG     HA 1497   9.808   5.117   8.308
   10ARG     CB 1498   9.649   5.221   8.407
   10ARG    HB2 1499   9.614   5.237   8.509
   10ARG    HB3 1500   9.705   5.308   8.372
   10ARG     CG 1501   9.520   5.208   8.327
   10ARG    HG2 1502   9.534   5.184   8.222
   10ARG    HG3 1503   9.463   5.128   8.372
   10ARG     CD 1504   9.433   5.332   8.331
   10ARG    HD2 1505   9.431   5.362   8.435
   10ARG    HD3 1506   9.487   5.418   8.291
   10ARG     NE 1507   9.300   5.299   8.264
   10ARG     HE 1508   9.299   5.259   8.172
   10ARG     CZ 1509   9.184   5.305   8.317
   10ARG    NH1 1510   9.164   5.336   8.445
   10ARG   HH11 1511   9.242   5.357   8.505
   10ARG   HH12 1512   9.069   5.352   8.471
   10ARG    NH2 1513   9.076   5.282   8.250
   10ARG   HH21 1514   9.087   5.201   8.190
   10ARG   HH22 1515   8.995   5.287   8.308
   10ARG      C 1516   9.850   5.099   8.506
   10ARG      O 1517   9.846   5.022   8.600
   11ARG      N 1518   9.950   5.187   8.492
   11ARG      H 1519   9.931   5.257   8.422
   11ARG     CA 1520  10.067   5.208   8.580
   11ARG     HA 1521  10.045   5.203   8.687
   11ARG     CB 1522  10.186   5.110   8.552
   11ARG    HB2 1523  10.204   5.088   8.446
   11ARG    HB3 1524  10.285   5.139   8.590
   11ARG     CG 1525  10.159   4.971   8.607
   11ARG    HG2 1526  10.158   4.974   8.716
   11ARG    HG3 1527  10.064   4.927   8.575
   11ARG     CD 1528  10.268   4.876   8.559
   11ARG    HD2 1529  10.237   4.776   8.586
   11ARG    HD3 1530  10.271   4.872   8.451
   11ARG     NE 1531  10.401   4.913   8.618
   11ARG     HE 1532  10.443   4.985   8.559
   11ARG     CZ 1533  10.433   4.904   8.747
   11ARG    NH1 1534  10.363   4.825   8.824
   11ARG   HH11 1535  10.289   4.774   8.777
   11ARG   HH12 1536  10.394   4.811   8.918
   11ARG    NH2 1537  10.532   4.964   8.796
   11ARG   HH21 1538  10.596   5.019   8.741
   11ARG   HH22 1539  10.532   4.970   8.898
   11ARG      C 1540  10.122   5.345   8.549
   11ARG      O 1541  10.097   5.406   8.448
   12LYS      N 1542  10.196   5.396   8.649
   12LYS      H 1543  10.226   5.328   8.718
   12LYS     CA 1544  10.269   5.524   8.646
   12LYS     HA 1545  10.285   5.552   8.542
   12LYS     CB 1546  10.186   5.635   8.717
   12LYS    HB2 1547  10.184   5.600   8.820
   12LYS    HB3 1548  10.246   5.726   8.713
   12LYS     CG 1549  10.044   5.664   8.666
   12LYS    HG2 1550  10.050   5.675   8.558
   12LYS    HG3 1551   9.980   5.576   8.669
   12LYS     CD 1552   9.970   5.781   8.734
   12LYS    HD2 1553  10.049   5.856   8.726
   12LYS    HD3 1554   9.880   5.810   8.679
   12LYS     CE 1555   9.953   5.766   8.884
   12LYS    HE2 1556   9.888   5.684   8.913
   12LYS    HE3 1557  10.046   5.740   8.934
   12LYS     NZ 1558   9.919   5.900   8.935
   12LYS    HZ1 1559   9.821   5.920   8.918
   12LYS    HZ2 1560   9.924   5.898   9.036
   12LYS    HZ3 1561   9.985   5.971   8.907
   12LYS      C 1562  10.414   5.518   8.708
   12LYS      O 1563  10.439   5.432   8.791
   13NHE      N 1564  10.495   5.615   8.680
   13NHE    HN1 1565  10.463   5.679   8.607
   13NHE    HN2 1566  10.585   5.616   8.724
    1ILE      N 1567   2.025   5.344  10.191
    1ILE     H1 1568   2.004   5.290  10.108
    1ILE     H2 1569   2.015   5.443  10.176
    1ILE     H3 1570   1.962   5.326  10.268
    1ILE     CA 1571   2.167   5.316  10.229
    1ILE     HA 1572   2.193   5.385  10.309
    1ILE     CB 1573   2.192   5.179  10.289
    1ILE     HB 1574   2.300   5.179  10.310
    1ILE    CG2 1575   2.119   5.180  10.424
    1ILE   HG21 1576   2.011   5.168  10.426
    1ILE   HG22 1577   2.147   5.094  10.485
    1ILE   HG23 1578   2.156   5.262  10.486
    1ILE    CG1 1579   2.144   5.066  10.199
    1ILE   HG12 1580   2.169   5.087  10.095
    1ILE   HG13 1581   2.038   5.042  10.213
    1ILE    CD1 1582   2.235   4.948  10.234
    1ILE   HD11 1583   2.221   4.863  10.167
    1ILE   HD12 1584   2.338   4.984  10.227
    1ILE   HD13 1585   2.217   4.909  10.333
    1ILE      C 1586   2.260   5.355  10.116
    1ILE      O 1587   2.217   5.336   9.999
    2LEU      N 1588   2.382   5.397  10.151
    2LEU      H 1589   2.402   5.392  10.249
    2LEU     CA 1590   2.485   5.433  10.053
    2LEU     HA 1591   2.435   5.490   9.973
    2LEU     CB 1592   2.595   5.520  10.120
    2LEU    HB2 1593   2.641   5.463  10.201
    2LEU    HB3 1594   2.672   5.552  10.051
    2LEU     CG 1595   2.546   5.642  10.196
    2LEU     HG 1596   2.474   5.631  10.276
    2LEU    CD1 1597   2.665   5.721  10.249
    2LEU   HD11 1598   2.747   5.737  10.178
    2LEU   HD12 1599   2.622   5.815  10.285
    2LEU   HD13 1600   2.708   5.683  10.342
    2LEU    CD2 1601   2.471   5.726  10.091
    2LEU   HD21 1602   2.374   5.678  10.075
    2LEU   HD22 1603   2.459   5.826  10.135
    2LEU   HD23 1604   2.529   5.739  10.000
    2LEU      C 1605   2.544   5.303   9.991
    2LEU      O 1606   2.552   5.201  10.056
    3ARG      N 1607   2.584   5.301   9.862
    3ARG      H 1608   2.564   5.383   9.806
    3ARG     CA 1609   2.650   5.187   9.796
    3ARG     HA 1610   2.611   5.103   9.852
    3ARG     CB 1611   2.590   5.180   9.656
    3ARG    HB2 1612   2.623   5.267   9.600
    3ARG    HB3 1613   2.625   5.088   9.607
    3ARG     CG 1614   2.437   5.166   9.643
    3ARG    HG2 1615   2.390   5.260   9.672
    3ARG    HG3 1616   2.413   5.164   9.536
    3ARG     CD 1617   2.371   5.047   9.715
    3ARG    HD2 1618   2.399   4.952   9.669
    3ARG    HD3 1619   2.401   5.027   9.818
    3ARG     NE 1620   2.218   5.045   9.706
    3ARG     HE 1621   2.176   5.102   9.635
    3ARG     CZ 1622   2.139   4.968   9.780
    3ARG    NH1 1623   2.184   4.899   9.879
    3ARG   HH11 1624   2.281   4.875   9.878
    3ARG   HH12 1625   2.111   4.850   9.930
    3ARG    NH2 1626   2.014   4.964   9.746
    3ARG   HH21 1627   1.977   5.028   9.676
    3ARG   HH22 1628   1.954   4.934   9.821
    3ARG      C 1629   2.801   5.173   9.819
    3ARG      O 1630   2.861   5.077   9.767
    4TRP      N 1631   2.857   5.257   9.908
    4TRP      H 1632   2.792   5.310   9.964
    4TRP     CA 1633   2.994   5.234   9.962
    4TRP     HA 1634   3.032   5.141   9.920
    4TRP     CB 1635   3.082   5.351   9.910
    4TRP    HB2 1636   3.173   5.360   9.968
    4TRP    HB3 1637   3.118   5.325   9.810
    4TRP     CG 1638   3.013   5.496   9.918
    4TRP    CD1 1639   2.999   5.560  10.039
    4TRP    HD1 1640   3.008   5.516  10.137
    4TRP    NE1 1641   2.954   5.686  10.015
    4TRP    HE1 1642   2.949   5.765  10.079
    4TRP    CE2 1643   2.926   5.711   9.880
    4TRP    CZ2 1644   2.872   5.812   9.802
    4TRP    HZ2 1645   2.836   5.903   9.847
    4TRP    CH2 1646   2.858   5.805   9.663
    4TRP    HH2 1647   2.823   5.888   9.602
    4TRP    CZ3 1648   2.894   5.683   9.597
    4TRP    HZ3 1649   2.878   5.661   9.492
    4TRP    CE3 1650   2.944   5.580   9.677
    4TRP    HE3 1651   2.986   5.490   9.634
    4TRP    CD2 1652   2.966   5.590   9.817
    4TRP      C 1653   2.992   5.211  10.119
    4TRP      O 1654   2.895   5.249  10.181
    5PRO      N 1655   3.098   5.147  10.179
    5PRO     CD 1656   3.213   5.089  10.120
    5PRO    HD2 1657   3.261   5.154  10.047
    5PRO    HD3 1658   3.186   4.997  10.068
    5PRO     CG 1659   3.309   5.054  10.233
    5PRO    HG2 1660   3.366   5.144  10.258
    5PRO    HG3 1661   3.373   4.968  10.213
    5PRO     CB 1662   3.212   5.037  10.361
    5PRO    HB2 1663   3.262   5.062  10.454
    5PRO    HB3 1664   3.170   4.937  10.356
    5PRO     CA 1665   3.095   5.138  10.328
    5PRO     HA 1666   3.001   5.089  10.351
    5PRO      C 1667   3.104   5.275  10.394
    5PRO      O 1668   3.194   5.355  10.368
    6TRP      N 1669   3.010   5.291  10.485
    6TRP      H 1670   2.947   5.214  10.502
    6TRP     CA 1671   2.985   5.417  10.562
    6TRP     HA 1672   3.032   5.496  10.503
    6TRP     CB 1673   2.839   5.466  10.558
    6TRP    HB2 1674   2.810   5.489  10.455
    6TRP    HB3 1675   2.775   5.389  10.600
    6TRP     CG 1676   2.827   5.586  10.647
    6TRP    CD1 1677   2.751   5.588  10.761
    6TRP    HD1 1678   2.702   5.502  10.805
    6TRP    NE1 1679   2.761   5.703  10.822
    6TRP    HE1 1680   2.705   5.735  10.899
    6TRP    CE2 1681   2.835   5.790  10.743
    6TRP    CZ2 1682   2.874   5.928  10.764
    6TRP    HZ2 1683   2.840   5.996  10.840
    6TRP    CH2 1684   2.958   5.991  10.671
    6TRP    HH2 1685   2.989   6.094  10.682
    6TRP    CZ3 1686   2.999   5.921  10.560
    6TRP    HZ3 1687   3.050   5.969  10.477
    6TRP    CE3 1688   2.972   5.787  10.547
    6TRP    HE3 1689   2.992   5.747  10.449
    6TRP    CD2 1690   2.887   5.715  10.634
    6TRP      C 1691   3.035   5.413  10.707
    6TRP      O 1692   2.993   5.330  10.785
    7TRP      N 1693   3.129   5.502  10.745
    7TRP      H 1694   3.172   5.555  10.671
    7TRP     CA 1695   3.149   5.527  10.886
    7TRP     HA 1696   3.082   5.470  10.951
    7TRP     CB 1697   3.286   5.467  10.919
    7TRP    HB2 1698   3.299   5.365  10.883
    7TRP    HB3 1699   3.364   5.527  10.871
    7TRP     CG 1700   3.319   5.467  11.060
    7TRP    CD1 1701   3.433   5.503  11.114
    7TRP    HD1 1702   3.515   5.544  11.057
    7TRP    NE1 1703   3.424   5.486  11.250
    7TRP    HE1 1704   3.496   5.512  11.316
    7TRP    CE2 1705   3.308   5.419  11.292
    7TRP    CZ2 1706   3.265   5.371  11.419
    7TRP    HZ2 1707   3.327   5.385  11.507
    7TRP    CH2 1708   3.147   5.292  11.421
    7TRP    HH2 1709   3.124   5.237  11.511
    7TRP    CZ3 1710   3.088   5.255  11.296
    7TRP    HZ3 1711   3.012   5.178  11.295
    7TRP    CE3 1712   3.129   5.315  11.175
    7TRP    HE3 1713   3.084   5.282  11.082
    7TRP    CD2 1714   3.243   5.398  11.168
    7TRP      C 1715   3.134   5.675  10.913
    7TRP      O 1716   3.194   5.755  10.846
    8PRO      N 1717   3.066   5.714  11.023
    8PRO     CD 1718   2.961   5.640  11.098
    8PRO    HD2 1719   3.010   5.594  11.184
    8PRO    HD3 1720   2.914   5.570  11.030
    8PRO     CG 1721   2.871   5.748  11.159
    8PRO    HG2 1722   2.822   5.693  11.240
    8PRO    HG3 1723   2.800   5.786  11.085
    8PRO     CB 1724   2.970   5.859  11.193
    8PRO    HB2 1725   3.024   5.836  11.283
    8PRO    HB3 1726   2.912   5.950  11.196
    8PRO     CA 1727   3.061   5.851  11.071
    8PRO     HA 1728   3.022   5.912  10.989
    8PRO      C 1729   3.198   5.917  11.111
    8PRO      O 1730   3.203   6.032  11.154
    9TRP      N 1731   3.311   5.855  11.079
    9TRP      H 1732   3.305   5.764  11.036
    9TRP     CA 1733   3.449   5.905  11.093
    9TRP     HA 1734   3.460   6.013  11.097
    9TRP     CB 1735   3.495   5.860  11.233
    9TRP    HB2 1736   3.432   5.897  11.313
    9TRP    HB3 1737   3.494   5.751  11.235
    9TRP     CG 1738   3.633   5.899  11.276
    9TRP    CD1 1739   3.738   5.817  11.301
    9TRP    HD1 1740   3.732   5.709  11.304
    9TRP    NE1 1741   3.846   5.890  11.352
    9TRP    HE1 1742   3.925   5.851  11.401
    9TRP    CE2 1743   3.820   6.028  11.340
    9TRP    CZ2 1744   3.899   6.142  11.360
    9TRP    HZ2 1745   4.000   6.135  11.396
    9TRP    CH2 1746   3.844   6.264  11.330
    9TRP    HH2 1747   3.906   6.351  11.349
    9TRP    CZ3 1748   3.711   6.275  11.299
    9TRP    HZ3 1749   3.678   6.372  11.268
    9TRP    CE3 1750   3.629   6.165  11.281
    9TRP    HE3 1751   3.528   6.183  11.251
    9TRP    CD2 1752   3.684   6.035  11.299
    9TRP      C 1753   3.536   5.860  10.977
    9TRP      O 1754   3.509   5.760  10.922
   10ARG      N 1755   3.650   5.926  10.962
   10ARG      H 1756   3.680   5.973  11.047
   10ARG     CA 1757   3.760   5.891  10.870
   10ARG     HA 1758   3.717   5.874  10.771
   10ARG     CB 1759   3.872   5.997  10.854
   10ARG    HB2 1760   3.949   5.988  10.932
   10ARG    HB3 1761   3.916   5.982  10.755
   10ARG     CG 1762   3.824   6.141  10.868
   10ARG    HG2 1763   3.741   6.166  10.803
   10ARG    HG3 1764   3.793   6.154  10.970
   10ARG     CD 1765   3.932   6.243  10.842
   10ARG    HD2 1766   4.019   6.208  10.896
   10ARG    HD3 1767   3.972   6.231  10.741
   10ARG     NE 1768   3.878   6.381  10.876
   10ARG     HE 1769   3.791   6.411  10.836
   10ARG     CZ 1770   3.924   6.461  10.963
   10ARG    NH1 1771   4.026   6.433  11.042
   10ARG   HH11 1772   4.073   6.344  11.035
   10ARG   HH12 1773   4.063   6.509  11.096
   10ARG    NH2 1774   3.874   6.580  10.981
   10ARG   HH21 1775   3.773   6.577  10.980
   10ARG   HH22 1776   3.920   6.628  11.056
   10ARG      C 1777   3.818   5.751  10.897
   10ARG      O 1778   3.813   5.697  11.006
   11ARG      N 1779   3.871   5.688  10.791
   11ARG      H 1780   3.887   5.750  10.713
   11ARG     CA 1781   3.931   5.553  10.784
   11ARG     HA 1782   3.992   5.526  10.870
   11ARG     CB 1783   3.826   5.438  10.765
   11ARG    HB2 1784   3.744   5.461  10.697
   11ARG    HB3 1785   3.863   5.342  10.728
   11ARG     CG 1786   3.751   5.408  10.894
   11ARG    HG2 1787   3.819   5.363  10.966
   11ARG    HG3 1788   3.705   5.495  10.940
   11ARG     CD 1789   3.638   5.311  10.864
   11ARG    HD2 1790   3.577   5.304  10.953
   11ARG    HD3 1791   3.569   5.352  10.790
   11ARG     NE 1792   3.691   5.177  10.820
   11ARG     HE 1793   3.710   5.181  10.720
   11ARG     CZ 1794   3.758   5.093  10.898
   11ARG    NH1 1795   3.748   5.105  11.028
   11ARG   HH11 1796   3.686   5.178  11.059
   11ARG   HH12 1797   3.791   5.035  11.086
   11ARG    NH2 1798   3.828   4.998  10.852
   11ARG   HH21 1799   3.833   4.977  10.753
   11ARG   HH22 1800   3.894   4.957  10.918
   11ARG      C 1801   4.017   5.548  10.660
   11ARG      O 1802   4.006   5.626  10.568
   12LYS      N 1803   4.111   5.452  10.665
   12LYS      H 1804   4.096   5.382  10.736
   12LYS     CA 1805   4.205   5.418  10.557
   12LYS     HA 1806   4.164   5.454  10.463
   12LYS     CB 1807   4.342   5.486  10.581
   12LYS    HB2 1808   4.377   5.437  10.672
   12LYS    HB3 1809   4.408   5.456  10.500
   12LYS     CG 1810   4.347   5.640  10.597
   12LYS    HG2 1811   4.290   5.681  10.514
   12LYS    HG3 1812   4.285   5.675  10.679
   12LYS     CD 1813   4.487   5.703  10.612
   12LYS    HD2 1814   4.536   5.653  10.527
   12LYS    HD3 1815   4.485   5.811  10.601
   12LYS     CE 1816   4.567   5.651  10.731
   12LYS    HE2 1817   4.525   5.678  10.827
   12LYS    HE3 1818   4.568   5.543  10.736
   12LYS     NZ 1819   4.707   5.690  10.706
   12LYS    HZ1 1820   4.721   5.787  10.729
   12LYS    HZ2 1821   4.765   5.642  10.774
   12LYS    HZ3 1822   4.741   5.659  10.616
   12LYS      C 1823   4.225   5.263  10.535
   12LYS      O 1824   4.205   5.188  10.628
   13NHE      N 1825   4.279   5.225  10.423
   13NHE    HN1 1826   4.289   5.298  10.352
   13NHE    HN2 1827   4.299   5.128  10.411
    1ILE      N 1828   9.063   7.956   6.056
    1ILE     H1 1829   9.132   7.883   6.068
    1ILE     H2 1830   8.992   7.953   6.128
    1ILE     H3 1831   9.101   8.049   6.066
    1ILE     CA 1832   8.997   7.938   5.924
    1ILE     HA 1833   8.914   8.007   5.918
    1ILE     CB 1834   9.083   7.974   5.803
    1ILE     HB 1835   9.018   7.954   5.718
    1ILE    CG2 1836   9.103   8.126   5.812
    1ILE   HG21 1837   9.174   8.166   5.884
    1ILE   HG22 1838   9.146   8.166   5.721
    1ILE   HG23 1839   9.006   8.176   5.813
    1ILE    CG1 1840   9.216   7.899   5.802
    1ILE   HG12 1841   9.202   7.796   5.830
    1ILE   HG13 1842   9.294   7.949   5.861
    1ILE    CD1 1843   9.252   7.890   5.653
    1ILE   HD11 1844   9.340   7.827   5.635
    1ILE   HD12 1845   9.166   7.848   5.602
    1ILE   HD13 1846   9.278   7.986   5.611
    1ILE      C 1847   8.932   7.802   5.916
    1ILE      O 1848   8.990   7.707   5.975
    2LEU      N 1849   8.822   7.793   5.840
    2LEU      H 1850   8.799   7.876   5.790
    2LEU     CA 1851   8.750   7.667   5.819
    2LEU     HA 1852   8.745   7.615   5.916
    2LEU     CB 1853   8.606   7.696   5.767
    2LEU    HB2 1854   8.612   7.750   5.673
    2LEU    HB3 1855   8.547   7.605   5.753
    2LEU     CG 1856   8.524   7.792   5.851
    2LEU     HG 1857   8.560   7.892   5.870
    2LEU    CD1 1858   8.383   7.804   5.792
    2LEU   HD11 1859   8.335   7.710   5.765
    2LEU   HD12 1860   8.327   7.860   5.867
    2LEU   HD13 1861   8.374   7.872   5.707
    2LEU    CD2 1862   8.517   7.729   5.990
    2LEU   HD21 1863   8.614   7.746   6.038
    2LEU   HD22 1864   8.436   7.781   6.043
    2LEU   HD23 1865   8.487   7.624   5.986
    2LEU      C 1866   8.830   7.577   5.719
    2LEU      O 1867   8.896   7.628   5.631
    3ARG      N 1868   8.829   7.443   5.732
    3ARG      H 1869   8.784   7.405   5.814
    3ARG     CA 1870   8.894   7.350   5.639
    3ARG     HA 1871   8.974   7.410   5.598
    3ARG     CB 1872   8.956   7.241   5.725
    3ARG    HB2 1873   8.876   7.183   5.771
    3ARG    HB3 1874   9.018   7.177   5.662
    3ARG     CG 1875   9.057   7.284   5.833
    3ARG    HG2 1876   9.005   7.335   5.914
    3ARG    HG3 1877   9.091   7.193   5.885
    3ARG     CD 1878   9.179   7.366   5.787
    3ARG    HD2 1879   9.247   7.306   5.725
    3ARG    HD3 1880   9.161   7.449   5.718
    3ARG     NE 1881   9.270   7.414   5.900
    3ARG     HE 1882   9.260   7.367   5.989
    3ARG     CZ 1883   9.365   7.505   5.888
    3ARG    NH1 1884   9.379   7.576   5.781
    3ARG   HH11 1885   9.342   7.538   5.696
    3ARG   HH12 1886   9.453   7.646   5.788
    3ARG    NH2 1887   9.446   7.519   5.989
    3ARG   HH21 1888   9.428   7.472   6.077
    3ARG   HH22 1889   9.492   7.608   5.990
    3ARG      C 1890   8.814   7.314   5.512
    3ARG      O 1891   8.865   7.238   5.428
    4TRP      N 1892   8.700   7.383   5.491
    4TRP      H 1893   8.686   7.463   5.551
    4TRP     CA 1894   8.631   7.382   5.359
    4TRP     HA 1895   8.691   7.322   5.290
    4TRP     CB 1896   8.495   7.310   5.381
    4TRP    HB2 1897   8.426   7.331   5.301
    4TRP    HB3 1898   8.512   7.202   5.373
    4TRP     CG 1899   8.417   7.353   5.516
    4TRP    CD1 1900   8.355   7.475   5.523
    4TRP    HD1 1901   8.369   7.560   5.456
    4TRP    NE1 1902   8.283   7.479   5.639
    4TRP    HE1 1903   8.212   7.546   5.667
    4TRP    CE2 1904   8.301   7.365   5.719
    4TRP    CZ2 1905   8.264   7.320   5.845
    4TRP    HZ2 1906   8.204   7.382   5.910
    4TRP    CH2 1907   8.300   7.196   5.897
    4TRP    HH2 1908   8.264   7.159   5.992
    4TRP    CZ3 1909   8.387   7.113   5.820
    4TRP    HZ3 1910   8.431   7.020   5.854
    4TRP    CE3 1911   8.428   7.161   5.696
    4TRP    HE3 1912   8.484   7.099   5.627
    4TRP    CD2 1913   8.385   7.283   5.639
    4TRP      C 1914   8.625   7.526   5.294
    4TRP      O 1915   8.641   7.623   5.367
    5PRO      N 1916   8.606   7.539   5.158
    5PRO     CD 1917   8.596   7.438   5.060
    5PRO    HD2 1918   8.528   7.357   5.087
    5PRO    HD3 1919   8.693   7.392   5.042
    5PRO     CG 1920   8.550   7.505   4.930
    5PRO    HG2 1921   8.441   7.514   4.933
    5PRO    HG3 1922   8.586   7.457   4.839
    5PRO     CB 1923   8.598   7.658   4.948
    5PRO    HB2 1924   8.534   7.728   4.896
    5PRO    HB3 1925   8.704   7.661   4.922
    5PRO     CA 1926   8.590   7.677   5.105
    5PRO     HA 1927   8.680   7.730   5.137
    5PRO      C 1928   8.465   7.746   5.157
    5PRO      O 1929   8.352   7.695   5.148
    6TRP      N 1930   8.491   7.865   5.205
    6TRP      H 1931   8.586   7.899   5.200
    6TRP     CA 1932   8.392   7.955   5.273
    6TRP     HA 1933   8.311   7.890   5.305
    6TRP     CB 1934   8.437   8.008   5.409
    6TRP    HB2 1935   8.452   7.925   5.479
    6TRP    HB3 1936   8.529   8.065   5.397
    6TRP     CG 1937   8.334   8.104   5.461
    6TRP    CD1 1938   8.357   8.238   5.479
    6TRP    HD1 1939   8.448   8.291   5.449
    6TRP    NE1 1940   8.249   8.299   5.520
    6TRP    HE1 1941   8.243   8.394   5.553
    6TRP    CE2 1942   8.150   8.206   5.543
    6TRP    CZ2 1943   8.013   8.221   5.589
    6TRP    HZ2 1944   7.966   8.310   5.629
    6TRP    CH2 1945   7.929   8.109   5.596
    6TRP    HH2 1946   7.827   8.116   5.631
    6TRP    CZ3 1947   7.980   7.985   5.562
    6TRP    HZ3 1948   7.925   7.894   5.581
    6TRP    CE3 1949   8.105   7.974   5.507
    6TRP    HE3 1950   8.141   7.873   5.501
    6TRP    CD2 1951   8.198   8.080   5.497
    6TRP      C 1952   8.343   8.072   5.185
    6TRP      O 1953   8.421   8.153   5.140
    7TRP      N 1954   8.212   8.080   5.156
    7TRP      H 1955   8.156   7.998   5.181
    7TRP     CA 1956   8.157   8.205   5.109
    7TRP     HA 1957   8.231   8.285   5.103
    7TRP     CB 1958   8.121   8.180   4.962
    7TRP    HB2 1959   8.201   8.135   4.904
    7TRP    HB3 1960   8.036   8.112   4.957
    7TRP     CG 1961   8.079   8.299   4.891
    7TRP    CD1 1962   7.976   8.311   4.811
    7TRP    HD1 1963   7.905   8.231   4.794
    7TRP    NE1 1964   7.972   8.439   4.761
    7TRP    HE1 1965   7.900   8.476   4.702
    7TRP    CE2 1966   8.086   8.516   4.793
    7TRP    CZ2 1967   8.129   8.645   4.753
    7TRP    HZ2 1968   8.068   8.706   4.687
    7TRP    CH2 1969   8.260   8.684   4.792
    7TRP    HH2 1970   8.302   8.772   4.746
    7TRP    CZ3 1971   8.343   8.587   4.855
    7TRP    HZ3 1972   8.449   8.608   4.866
    7TRP    CE3 1973   8.292   8.465   4.902
    7TRP    HE3 1974   8.359   8.392   4.946
    7TRP    CD2 1975   8.161   8.422   4.869
    7TRP      C 1976   8.042   8.246   5.199
    7TRP      O 1977   7.955   8.168   5.225
    8PRO      N 1978   8.033   8.376   5.235
    8PRO     CD 1979   8.140   8.478   5.243
    8PRO    HD2 1980   8.135   8.536   5.151
    8PRO    HD3 1981   8.235   8.427   5.259
    8PRO     CG 1982   8.096   8.576   5.352
    8PRO    HG2 1983   8.154   8.665   5.329
    8PRO    HG3 1984   8.118   8.536   5.451
    8PRO     CB 1985   7.944   8.579   5.335
    8PRO    HB2 1986   7.916   8.641   5.251
    8PRO    HB3 1987   7.904   8.610   5.431
    8PRO     CA 1988   7.918   8.433   5.304
    8PRO     HA 1989   7.905   8.375   5.396
    8PRO      C 1990   7.780   8.425   5.230
    8PRO      O 1991   7.677   8.471   5.279
    9TRP      N 1992   7.769   8.349   5.120
    9TRP      H 1993   7.853   8.304   5.086
    9TRP     CA 1994   7.648   8.315   5.045
    9TRP     HA 1995   7.554   8.323   5.099
    9TRP     CB 1996   7.635   8.425   4.937
    9TRP    HB2 1997   7.628   8.525   4.978
    9TRP    HB3 1998   7.722   8.419   4.873
    9TRP     CG 1999   7.517   8.417   4.845
    9TRP    CD1 2000   7.519   8.396   4.711
    9TRP    HD1 2001   7.608   8.393   4.650
    9TRP    NE1 2002   7.389   8.409   4.659
    9TRP    HE1 2003   7.367   8.423   4.561
    9TRP    CE2 2004   7.296   8.418   4.763
    9TRP    CZ2 2005   7.156   8.417   4.766
    9TRP    HZ2 2006   7.097   8.412   4.676
    9TRP    CH2 2007   7.095   8.418   4.889
    9TRP    HH2 2008   6.986   8.419   4.889
    9TRP    CZ3 2009   7.167   8.438   5.003
    9TRP    HZ3 2010   7.113   8.428   5.096
    9TRP    CE3 2011   7.305   8.444   5.004
    9TRP    HE3 2012   7.354   8.453   5.099
    9TRP    CD2 2013   7.374   8.430   4.881
    9TRP      C 2014   7.652   8.172   4.993
    9TRP      O 2015   7.757   8.124   4.972
   10ARG      N 2016   7.536   8.122   4.954
   10ARG      H 2017   7.468   8.193   4.931
   10ARG     CA 2018   7.517   7.993   4.883
   10ARG     HA 2019   7.570   7.916   4.938
   10ARG     CB 2020   7.369   7.946   4.869
   10ARG    HB2 2021   7.320   7.989   4.781
   10ARG    HB3 2022   7.373   7.837   4.862
   10ARG     CG 2023   7.280   7.987   4.985
   10ARG    HG2 2024   7.317   7.959   5.083
   10ARG    HG3 2025   7.271   8.094   4.982
   10ARG     CD 2026   7.139   7.930   4.975
   10ARG    HD2 2027   7.109   7.946   4.873
   10ARG    HD3 2028   7.142   7.821   4.973
   10ARG     NE 2029   7.055   7.993   5.086
   10ARG     HE 2030   7.087   7.990   5.180
   10ARG     CZ 2031   6.950   8.063   5.070
   10ARG    NH1 2032   6.901   8.096   4.952
   10ARG   HH11 2033   6.947   8.066   4.867
   10ARG   HH12 2034   6.809   8.138   4.952
   10ARG    NH2 2035   6.881   8.106   5.171
   10ARG   HH21 2036   6.941   8.142   5.243
   10ARG   HH22 2037   6.803   8.162   5.141
   10ARG      C 2038   7.591   7.987   4.749
   10ARG      O 2039   7.619   8.086   4.684
   11ARG      N 2040   7.628   7.865   4.708
   11ARG      H 2041   7.582   7.791   4.760
   11ARG     CA 2042   7.703   7.827   4.587
   11ARG     HA 2043   7.675   7.882   4.497
   11ARG     CB 2044   7.859   7.838   4.601
   11ARG    HB2 2045   7.898   7.807   4.698
   11ARG    HB3 2046   7.920   7.784   4.529
   11ARG     CG 2047   7.905   7.984   4.595
   11ARG    HG2 2048   7.890   8.022   4.495
   11ARG    HG3 2049   7.854   8.050   4.665
   11ARG     CD 2050   8.053   7.989   4.631
   11ARG    HD2 2051   8.079   8.094   4.642
   11ARG    HD3 2052   8.071   7.950   4.731
   11ARG     NE 2053   8.137   7.920   4.527
   11ARG     HE 2054   8.139   7.821   4.549
   11ARG     CZ 2055   8.152   7.961   4.402
   11ARG    NH1 2056   8.128   8.087   4.373
   11ARG   HH11 2057   8.100   8.144   4.452
   11ARG   HH12 2058   8.150   8.119   4.280
   11ARG    NH2 2059   8.196   7.886   4.310
   11ARG   HH21 2060   8.226   7.791   4.327
   11ARG   HH22 2061   8.180   7.920   4.216
   11ARG      C 2062   7.678   7.680   4.562
   11ARG      O 2063   7.636   7.604   4.647
   12LYS      N 2064   7.700   7.643   4.435
   12LYS      H 2065   7.753   7.709   4.380
   12LYS     CA 2066   7.691   7.506   4.382
   12LYS     HA 2067   7.701   7.436   4.465
   12LYS     CB 2068   7.553   7.483   4.314
   12LYS    HB2 2069   7.558   7.551   4.229
   12LYS    HB3 2070   7.553   7.381   4.275
   12LYS     CG 2071   7.424   7.507   4.396
   12LYS    HG2 2072   7.437   7.454   4.490
   12LYS    HG3 2073   7.419   7.608   4.435
   12LYS     CD 2074   7.291   7.474   4.326
   12LYS    HD2 2075   7.316   7.375   4.289
   12LYS    HD3 2076   7.207   7.473   4.395
   12LYS     CE 2077   7.267   7.552   4.197
   12LYS    HE2 2078   7.254   7.659   4.211
   12LYS    HE3 2079   7.352   7.548   4.130
   12LYS     NZ 2080   7.159   7.481   4.125
   12LYS    HZ1 2081   7.070   7.504   4.166
   12LYS    HZ2 2082   7.153   7.519   4.032
   12LYS    HZ3 2083   7.180   7.383   4.113
   12LYS      C 2084   7.806   7.466   4.283
   12LYS      O 2085   7.863   7.555   4.222
   13NHE      N 2086   7.824   7.340   4.259
   13NHE    HN1 2087   7.771   7.276   4.318
   13NHE    HN2 2088   7.892   7.314   4.190
    1ILE      N 2089  10.717   7.656   1.241
    1ILE     H1 2090  10.717   7.564   1.282
    1ILE     H2 2091  10.803   7.674   1.191
    1ILE     H3 2092  10.647   7.668   1.169
    1ILE     CA 2093  10.702   7.756   1.349
    1ILE     HA 2094  10.717   7.855   1.305
    1ILE     CB 2095  10.563   7.765   1.411
    1ILE     HB 2096  10.574   7.843   1.487
    1ILE    CG2 2097  10.473   7.819   1.300
    1ILE   HG21 2098  10.440   7.753   1.220
    1ILE   HG22 2099  10.375   7.848   1.339
    1ILE   HG23 2100  10.511   7.915   1.265
    1ILE    CG1 2101  10.514   7.630   1.464
    1ILE   HG12 2102  10.595   7.578   1.514
    1ILE   HG13 2103  10.466   7.569   1.386
    1ILE    CD1 2104  10.419   7.667   1.577
    1ILE   HD11 2105  10.385   7.579   1.634
    1ILE   HD12 2106  10.472   7.735   1.644
    1ILE   HD13 2107  10.328   7.713   1.542
    1ILE      C 2108  10.815   7.743   1.449
    1ILE      O 2109  10.858   7.627   1.471
    2LEU      N 2110  10.854   7.856   1.510
    2LEU      H 2111  10.798   7.937   1.489
    2LEU     CA 2112  10.959   7.859   1.613
    2LEU     HA 2113  11.039   7.793   1.578
    2LEU     CB 2114  11.012   8.004   1.630
    2LEU    HB2 2115  10.930   8.068   1.661
    2LEU    HB3 2116  11.093   8.011   1.703
    2LEU     CG 2117  11.058   8.074   1.503
    2LEU     HG 2118  10.989   8.086   1.421
    2LEU    CD1 2119  11.114   8.211   1.538
    2LEU   HD11 2120  11.183   8.214   1.622
    2LEU   HD12 2121  11.161   8.246   1.445
    2LEU   HD13 2122  11.040   8.290   1.553
    2LEU    CD2 2123  11.169   7.984   1.446
    2LEU   HD21 2124  11.120   7.898   1.400
    2LEU   HD22 2125  11.222   8.045   1.372
    2LEU   HD23 2126  11.243   7.958   1.521
    2LEU      C 2127  10.902   7.801   1.746
    2LEU      O 2128  10.785   7.817   1.775
    3ARG      N 2129  10.982   7.731   1.829
    3ARG      H 2130  11.074   7.709   1.796
    3ARG     CA 2131  10.941   7.681   1.962
    3ARG     HA 2132  10.834   7.668   1.949
    3ARG     CB 2133  11.003   7.542   1.974
    3ARG    HB2 2134  11.111   7.553   1.980
    3ARG    HB3 2135  10.964   7.494   2.064
    3ARG     CG 2136  10.968   7.438   1.866
    3ARG    HG2 2137  11.017   7.465   1.772
    3ARG    HG3 2138  11.022   7.345   1.890
    3ARG     CD 2139  10.819   7.408   1.842
    3ARG    HD2 2140  10.775   7.357   1.928
    3ARG    HD3 2141  10.751   7.492   1.835
    3ARG     NE 2142  10.791   7.310   1.727
    3ARG     HE 2143  10.869   7.255   1.695
    3ARG     CZ 2144  10.673   7.289   1.673
    3ARG    NH1 2145  10.570   7.362   1.702
    3ARG   HH11 2146  10.571   7.410   1.789
    3ARG   HH12 2147  10.487   7.338   1.648
    3ARG    NH2 2148  10.664   7.190   1.590
    3ARG   HH21 2149  10.746   7.140   1.558
    3ARG   HH22 2150  10.585   7.197   1.528
    3ARG      C 2151  10.948   7.781   2.078
    3ARG      O 2152  10.912   7.745   2.191
    4TRP      N 2153  10.976   7.909   2.046
    4TRP      H 2154  10.973   7.931   1.948
    4TRP     CA 2155  10.954   8.021   2.143
    4TRP     HA 2156  10.911   7.978   2.234
    4TRP     CB 2157  11.095   8.077   2.176
    4TRP    HB2 2158  11.088   8.176   2.220
    4TRP    HB3 2159  11.137   8.016   2.257
    4TRP     CG 2160  11.193   8.095   2.049
    4TRP    CD1 2161  11.172   8.197   1.960
    4TRP    HD1 2162  11.083   8.258   1.949
    4TRP    NE1 2163  11.277   8.200   1.873
    4TRP    HE1 2164  11.303   8.272   1.807
    4TRP    CE2 2165  11.368   8.095   1.894
    4TRP    CZ2 2166  11.482   8.043   1.834
    4TRP    HZ2 2167  11.522   8.087   1.745
    4TRP    CH2 2168  11.553   7.932   1.882
    4TRP    HH2 2169  11.645   7.897   1.838
    4TRP    CZ3 2170  11.500   7.862   1.994
    4TRP    HZ3 2171  11.538   7.768   2.034
    4TRP    CE3 2172  11.382   7.911   2.051
    4TRP    HE3 2173  11.343   7.872   2.144
    4TRP    CD2 2174  11.315   8.028   2.008
    4TRP      C 2175  10.846   8.124   2.090
    4TRP      O 2176  10.822   8.126   1.970
    5PRO      N 2177  10.782   8.207   2.179
    5PRO     CD 2178  10.792   8.210   2.320
    5PRO    HD2 2179  10.896   8.210   2.356
    5PRO    HD3 2180  10.743   8.124   2.365
    5PRO     CG 2181  10.720   8.337   2.368
    5PRO    HG2 2182  10.789   8.421   2.360
    5PRO    HG3 2183  10.675   8.328   2.467
    5PRO     CB 2184  10.615   8.366   2.249
    5PRO    HB2 2185  10.592   8.472   2.239
    5PRO    HB3 2186  10.529   8.301   2.266
    5PRO     CA 2187  10.690   8.310   2.122
    5PRO     HA 2188  10.619   8.253   2.063
    5PRO      C 2189  10.764   8.413   2.037
    5PRO      O 2190  10.861   8.476   2.080
    6TRP      N 2191  10.706   8.428   1.920
    6TRP      H 2192  10.623   8.376   1.900
    6TRP     CA 2193  10.759   8.515   1.809
    6TRP     HA 2194  10.864   8.529   1.832
    6TRP     CB 2195  10.770   8.444   1.674
    6TRP    HB2 2196  10.842   8.361   1.680
    6TRP    HB3 2197  10.673   8.408   1.643
    6TRP     CG 2198  10.814   8.544   1.571
    6TRP    CD1 2199  10.736   8.583   1.466
    6TRP    HD1 2200  10.632   8.554   1.450
    6TRP    NE1 2201  10.796   8.675   1.394
    6TRP    HE1 2202  10.766   8.709   1.304
    6TRP    CE2 2203  10.924   8.693   1.442
    6TRP    CZ2 2204  11.031   8.781   1.398
    6TRP    HZ2 2205  11.035   8.841   1.308
    6TRP    CH2 2206  11.151   8.787   1.470
    6TRP    HH2 2207  11.233   8.850   1.440
    6TRP    CZ3 2208  11.166   8.705   1.580
    6TRP    HZ3 2209  11.261   8.693   1.630
    6TRP    CE3 2210  11.060   8.631   1.628
    6TRP    HE3 2211  11.088   8.558   1.701
    6TRP    CD2 2212  10.936   8.618   1.562
    6TRP      C 2213  10.683   8.647   1.793
    6TRP      O 2214  10.564   8.649   1.769
    7TRP      N 2215  10.751   8.763   1.808
    7TRP      H 2216  10.845   8.753   1.846
    7TRP     CA 2217  10.696   8.886   1.756
    7TRP     HA 2218  10.600   8.872   1.705
    7TRP     CB 2219  10.657   8.968   1.879
    7TRP    HB2 2220  10.598   8.913   1.953
    7TRP    HB3 2221  10.748   9.001   1.931
    7TRP     CG 2222  10.584   9.089   1.849
    7TRP    CD1 2223  10.605   9.209   1.899
    7TRP    HD1 2224  10.687   9.231   1.967
    7TRP    NE1 2225  10.513   9.296   1.847
    7TRP    HE1 2226  10.510   9.395   1.864
    7TRP    CE2 2227  10.412   9.234   1.771
    7TRP    CZ2 2228  10.293   9.282   1.710
    7TRP    HZ2 2229  10.267   9.387   1.716
    7TRP    CH2 2230  10.205   9.185   1.654
    7TRP    HH2 2231  10.106   9.217   1.627
    7TRP    CZ3 2232  10.235   9.047   1.676
    7TRP    HZ3 2233  10.158   8.974   1.654
    7TRP    CE3 2234  10.359   9.005   1.727
    7TRP    HE3 2235  10.376   8.900   1.744
    7TRP    CD2 2236  10.452   9.097   1.780
    7TRP      C 2237  10.796   8.950   1.663
    7TRP      O 2238  10.910   8.966   1.699
    8PRO      N 2239  10.751   9.004   1.547
    8PRO     CD 2240  10.629   8.969   1.471
    8PRO    HD2 2241  10.553   9.043   1.497
    8PRO    HD3 2242  10.602   8.866   1.495
    8PRO     CG 2243  10.662   8.999   1.325
    8PRO    HG2 2244  10.563   9.009   1.280
    8PRO    HG3 2245  10.720   8.918   1.280
    8PRO     CB 2246  10.752   9.122   1.335
    8PRO    HB2 2247  10.694   9.211   1.353
    8PRO    HB3 2248  10.812   9.123   1.245
    8PRO     CA 2249  10.833   9.085   1.458
    8PRO     HA 2250  10.920   9.025   1.431
    8PRO      C 2251  10.890   9.218   1.518
    8PRO      O 2252  10.959   9.295   1.450
    9TRP      N 2253  10.882   9.240   1.649
    9TRP      H 2254  10.832   9.172   1.705
    9TRP     CA 2255  10.942   9.349   1.728
    9TRP     HA 2256  11.028   9.398   1.683
    9TRP     CB 2257  10.835   9.461   1.730
    9TRP    HB2 2258  10.807   9.495   1.631
    9TRP    HB3 2259  10.747   9.422   1.781
    9TRP     CG 2260  10.870   9.587   1.802
    9TRP    CD1 2261  10.811   9.637   1.914
    9TRP    HD1 2262  10.722   9.597   1.960
    9TRP    NE1 2263  10.863   9.764   1.943
    9TRP    HE1 2264  10.820   9.832   2.004
    9TRP    CE2 2265  10.974   9.790   1.861
    9TRP    CZ2 2266  11.070   9.892   1.860
    9TRP    HZ2 2267  11.065   9.976   1.929
    9TRP    CH2 2268  11.173   9.883   1.771
    9TRP    HH2 2269  11.245   9.964   1.770
    9TRP    CZ3 2270  11.173   9.787   1.674
    9TRP    HZ3 2271  11.262   9.779   1.614
    9TRP    CE3 2272  11.079   9.686   1.669
    9TRP    HE3 2273  11.090   9.610   1.594
    9TRP    CD2 2274  10.977   9.683   1.768
    9TRP      C 2275  10.989   9.300   1.864
    9TRP      O 2276  10.934   9.208   1.912
   10ARG      N 2277  11.073   9.381   1.927
   10ARG      H 2278  11.069   9.476   1.895
   10ARG     CA 2279  11.119   9.365   2.067
   10ARG     HA 2280  11.153   9.263   2.080
   10ARG     CB 2281  11.235   9.459   2.110
   10ARG    HB2 2282  11.200   9.557   2.144
   10ARG    HB3 2283  11.288   9.408   2.191
   10ARG     CG 2284  11.333   9.493   1.999
   10ARG    HG2 2285  11.373   9.406   1.947
   10ARG    HG3 2286  11.279   9.553   1.927
   10ARG     CD 2287  11.451   9.575   2.045
   10ARG    HD2 2288  11.410   9.652   2.108
   10ARG    HD3 2289  11.507   9.521   2.122
   10ARG     NE 2290  11.531   9.618   1.922
   10ARG     HE 2291  11.560   9.549   1.855
   10ARG     CZ 2292  11.555   9.737   1.885
   10ARG    NH1 2293  11.508   9.844   1.947
   10ARG   HH11 2294  11.450   9.833   2.029
   10ARG   HH12 2295  11.547   9.932   1.919
   10ARG    NH2 2296  11.630   9.763   1.782
   10ARG   HH21 2297  11.607   9.702   1.705
   10ARG   HH22 2298  11.635   9.862   1.766
   10ARG      C 2299  11.003   9.369   2.169
   10ARG      O 2300  10.898   9.425   2.147
   11ARG      N 2301  11.024   9.301   2.282
   11ARG      H 2302  11.121   9.276   2.296
   11ARG     CA 2303  10.932   9.282   2.396
   11ARG     HA 2304  10.874   9.371   2.423
   11ARG     CB 2305  10.830   9.164   2.378
   11ARG    HB2 2306  10.870   9.075   2.329
   11ARG    HB3 2307  10.781   9.125   2.467
   11ARG     CG 2308  10.717   9.202   2.281
   11ARG    HG2 2309  10.654   9.278   2.327
   11ARG    HG3 2310  10.751   9.240   2.185
   11ARG     CD 2311  10.634   9.078   2.252
   11ARG    HD2 2312  10.566   9.105   2.171
   11ARG    HD3 2313  10.695   9.000   2.206
   11ARG     NE 2314  10.562   9.030   2.374
   11ARG     HE 2315  10.626   8.970   2.427
   11ARG     CZ 2316  10.465   9.095   2.436
   11ARG    NH1 2317  10.399   9.187   2.370
   11ARG   HH11 2318  10.427   9.200   2.275
   11ARG   HH12 2319  10.319   9.229   2.415
   11ARG    NH2 2320  10.430   9.069   2.555
   11ARG   HH21 2321  10.469   8.993   2.608
   11ARG   HH22 2322  10.373   9.140   2.599
   11ARG      C 2323  11.015   9.241   2.515
   11ARG      O 2324  11.128   9.197   2.507
   12LYS      N 2325  10.955   9.265   2.633
   12LYS      H 2326  10.856   9.282   2.627
   12LYS     CA 2327  11.008   9.230   2.766
   12LYS     HA 2328  11.082   9.151   2.754
   12LYS     CB 2329  11.076   9.353   2.831
   12LYS    HB2 2330  10.993   9.421   2.846
   12LYS    HB3 2331  11.111   9.322   2.929
   12LYS     CG 2332  11.191   9.423   2.755
   12LYS    HG2 2333  11.260   9.345   2.724
   12LYS    HG3 2334  11.160   9.458   2.657
   12LYS     CD 2335  11.261   9.539   2.829
   12LYS    HD2 2336  11.279   9.488   2.924
   12LYS    HD3 2337  11.354   9.569   2.780
   12LYS     CE 2338  11.168   9.653   2.869
   12LYS    HE2 2339  11.127   9.708   2.785
   12LYS    HE3 2340  11.079   9.618   2.920
   12LYS     NZ 2341  11.242   9.732   2.970
   12LYS    HZ1 2342  11.309   9.792   2.925
   12LYS    HZ2 2343  11.177   9.798   3.011
   12LYS    HZ3 2344  11.275   9.675   3.047
   12LYS      C 2345  10.901   9.170   2.865
   12LYS      O 2346  10.784   9.198   2.848
   13NHE      N 2347  10.945   9.107   2.969
   13NHE    HN1 2348  11.045   9.088   2.970
   13NHE    HN2 2349  10.878   9.074   3.036
    1ILE      N 2350   2.568   6.345   3.873
    1ILE     H1 2351   2.636   6.283   3.914
    1ILE     H2 2352   2.609   6.430   3.839
    1ILE     H3 2353   2.523   6.307   3.790
    1ILE     CA 2354   2.467   6.379   3.977
    1ILE     HA 2355   2.403   6.457   3.936
    1ILE     CB 2356   2.370   6.267   4.014
    1ILE     HB 2357   2.306   6.313   4.091
    1ILE    CG2 2358   2.285   6.246   3.889
    1ILE   HG21 2359   2.326   6.191   3.804
    1ILE   HG22 2360   2.199   6.182   3.910
    1ILE   HG23 2361   2.235   6.339   3.861
    1ILE    CG1 2362   2.442   6.140   4.057
    1ILE   HG12 2363   2.526   6.164   4.121
    1ILE   HG13 2364   2.470   6.076   3.973
    1ILE    CD1 2365   2.344   6.072   4.152
    1ILE   HD11 2366   2.387   5.984   4.202
    1ILE   HD12 2367   2.315   6.146   4.227
    1ILE   HD13 2368   2.256   6.034   4.101
    1ILE      C 2369   2.535   6.446   4.095
    1ILE      O 2370   2.650   6.405   4.125
    2LEU      N 2371   2.462   6.536   4.162
    2LEU      H 2372   2.367   6.545   4.132
    2LEU     CA 2373   2.512   6.606   4.281
    2LEU     HA 2374   2.616   6.633   4.262
    2LEU     CB 2375   2.427   6.733   4.308
    2LEU    HB2 2376   2.323   6.704   4.324
    2LEU    HB3 2377   2.462   6.791   4.394
    2LEU     CG 2378   2.412   6.829   4.191
    2LEU     HG 2379   2.370   6.794   4.098
    2LEU    CD1 2380   2.334   6.952   4.235
    2LEU   HD11 2381   2.364   6.996   4.330
    2LEU   HD12 2382   2.344   7.022   4.152
    2LEU   HD13 2383   2.225   6.940   4.237
    2LEU    CD2 2384   2.556   6.869   4.154
    2LEU   HD21 2385   2.600   6.785   4.100
    2LEU   HD22 2386   2.547   6.958   4.090
    2LEU   HD23 2387   2.613   6.900   4.241
    2LEU      C 2388   2.509   6.508   4.403
    2LEU      O 2389   2.424   6.422   4.411
    3ARG      N 2390   2.603   6.516   4.499
    3ARG      H 2391   2.680   6.579   4.483
    3ARG     CA 2392   2.605   6.435   4.622
    3ARG     HA 2393   2.552   6.346   4.591
    3ARG     CB 2394   2.751   6.397   4.645
    3ARG    HB2 2395   2.806   6.487   4.670
    3ARG    HB3 2396   2.755   6.325   4.727
    3ARG     CG 2397   2.824   6.322   4.533
    3ARG    HG2 2398   2.842   6.389   4.449
    3ARG    HG3 2399   2.927   6.303   4.566
    3ARG     CD 2400   2.761   6.190   4.483
    3ARG    HD2 2401   2.766   6.112   4.560
    3ARG    HD3 2402   2.654   6.189   4.464
    3ARG     NE 2403   2.834   6.125   4.365
    3ARG     HE 2404   2.928   6.156   4.348
    3ARG     CZ 2405   2.785   6.027   4.291
    3ARG    NH1 2406   2.663   5.987   4.301
    3ARG   HH11 2407   2.616   6.005   4.388
    3ARG   HH12 2408   2.638   5.915   4.233
    3ARG    NH2 2409   2.867   5.971   4.208
    3ARG   HH21 2410   2.960   6.009   4.191
    3ARG   HH22 2411   2.821   5.923   4.133
    3ARG      C 2412   2.517   6.486   4.737
    3ARG      O 2413   2.512   6.420   4.843
    4TRP      N 2414   2.436   6.589   4.711
    4TRP      H 2415   2.427   6.614   4.614
    4TRP     CA 2416   2.324   6.627   4.802
    4TRP     HA 2417   2.322   6.555   4.885
    4TRP     CB 2418   2.360   6.766   4.860
    4TRP    HB2 2419   2.273   6.815   4.902
    4TRP    HB3 2420   2.425   6.752   4.947
    4TRP     CG 2421   2.418   6.871   4.752
    4TRP    CD1 2422   2.334   6.930   4.660
    4TRP    HD1 2423   2.233   6.899   4.635
    4TRP    NE1 2424   2.404   7.026   4.594
    4TRP    HE1 2425   2.370   7.099   4.533
    4TRP    CE2 2426   2.540   7.030   4.630
    4TRP    CZ2 2427   2.656   7.096   4.591
    4TRP    HZ2 2428   2.654   7.167   4.510
    4TRP    CH2 2429   2.781   7.077   4.651
    4TRP    HH2 2430   2.869   7.134   4.624
    4TRP    CZ3 2431   2.793   6.977   4.752
    4TRP    HZ3 2432   2.886   6.944   4.798
    4TRP    CE3 2433   2.677   6.907   4.788
    4TRP    HE3 2434   2.675   6.840   4.872
    4TRP    CD2 2435   2.549   6.932   4.733
    4TRP      C 2436   2.182   6.613   4.731
    4TRP      O 2437   2.179   6.612   4.610
    5PRO      N 2438   2.069   6.601   4.808
    5PRO     CD 2439   2.057   6.592   4.949
    5PRO    HD2 2440   2.116   6.668   5.003
    5PRO    HD3 2441   2.092   6.495   4.984
    5PRO     CG 2442   1.909   6.606   4.983
    5PRO    HG2 2443   1.885   6.712   4.987
    5PRO    HG3 2444   1.878   6.552   5.073
    5PRO     CB 2445   1.835   6.558   4.848
    5PRO    HB2 2446   1.739   6.606   4.834
    5PRO    HB3 2447   1.833   6.449   4.849
    5PRO     CA 2448   1.939   6.600   4.736
    5PRO     HA 2449   1.947   6.518   4.665
    5PRO      C 2450   1.910   6.732   4.666
    5PRO      O 2451   1.914   6.841   4.724
    6TRP      N 2452   1.876   6.713   4.540
    6TRP      H 2453   1.869   6.619   4.506
    6TRP     CA 2454   1.851   6.822   4.440
    6TRP     HA 2455   1.900   6.910   4.480
    6TRP     CB 2456   1.928   6.807   4.309
    6TRP    HB2 2457   2.036   6.811   4.328
    6TRP    HB3 2458   1.901   6.713   4.262
    6TRP     CG 2459   1.886   6.916   4.215
    6TRP    CD1 2460   1.819   6.893   4.097
    6TRP    HD1 2461   1.781   6.797   4.064
    6TRP    NE1 2462   1.790   7.006   4.037
    6TRP    HE1 2463   1.755   7.016   3.944
    6TRP    CE2 2464   1.848   7.111   4.107
    6TRP    CZ2 2465   1.846   7.253   4.082
    6TRP    HZ2 2466   1.811   7.306   3.994
    6TRP    CH2 2467   1.906   7.341   4.174
    6TRP    HH2 2468   1.908   7.447   4.160
    6TRP    CZ3 2469   1.968   7.288   4.286
    6TRP    HZ3 2470   2.030   7.348   4.351
    6TRP    CE3 2471   1.959   7.153   4.314
    6TRP    HE3 2472   2.025   7.120   4.391
    6TRP    CD2 2473   1.901   7.058   4.227
    6TRP      C 2474   1.702   6.846   4.410
    6TRP      O 2475   1.631   6.757   4.366
    7TRP      N 2476   1.649   6.968   4.438
    7TRP      H 2477   1.709   7.030   4.491
    7TRP     CA 2478   1.524   7.006   4.377
    7TRP     HA 2479   1.483   6.931   4.310
    7TRP     CB 2480   1.423   7.009   4.491
    7TRP    HB2 2481   1.423   6.920   4.553
    7TRP    HB3 2482   1.446   7.093   4.557
    7TRP     CG 2483   1.286   7.030   4.448
    7TRP    CD1 2484   1.198   7.112   4.501
    7TRP    HD1 2485   1.223   7.180   4.582
    7TRP    NE1 2486   1.080   7.101   4.433
    7TRP    HE1 2487   0.998   7.157   4.450
    7TRP    CE2 2488   1.076   6.995   4.341
    7TRP    CZ2 2489   0.973   6.940   4.260
    7TRP    HZ2 2490   0.874   6.983   4.262
    7TRP    CH2 2491   1.003   6.820   4.190
    7TRP    HH2 2492   0.921   6.765   4.146
    7TRP    CZ3 2493   1.128   6.756   4.217
    7TRP    HZ3 2494   1.143   6.654   4.181
    7TRP    CE3 2495   1.231   6.820   4.289
    7TRP    HE3 2496   1.322   6.767   4.309
    7TRP    CD2 2497   1.208   6.942   4.357
    7TRP      C 2498   1.543   7.137   4.302
    7TRP      O 2499   1.595   7.230   4.357
    8PRO      N 2500   1.486   7.150   4.180
    8PRO     CD 2501   1.448   7.044   4.084
    8PRO    HD2 2502   1.342   7.027   4.097
    8PRO    HD3 2503   1.511   6.957   4.102
    8PRO     CG 2504   1.460   7.109   3.946
    8PRO    HG2 2505   1.397   7.044   3.884
    8PRO    HG3 2506   1.564   7.111   3.912
    8PRO     CB 2507   1.416   7.252   3.972
    8PRO    HB2 2508   1.308   7.259   3.979
    8PRO    HB3 2509   1.460   7.312   3.893
    8PRO     CA 2510   1.480   7.276   4.107
    8PRO     HA 2511   1.583   7.311   4.096
    8PRO      C 2512   1.403   7.394   4.176
    8PRO      O 2513   1.391   7.504   4.121
    9TRP      N 2514   1.366   7.382   4.304
    9TRP      H 2515   1.385   7.294   4.350
    9TRP     CA 2516   1.308   7.484   4.391
    9TRP     HA 2517   1.325   7.588   4.362
    9TRP     CB 2518   1.155   7.469   4.375
    9TRP    HB2 2519   1.121   7.482   4.272
    9TRP    HB3 2520   1.127   7.370   4.409
    9TRP     CG 2521   1.068   7.564   4.452
    9TRP    CD1 2522   0.981   7.532   4.552
    9TRP    HD1 2523   0.955   7.432   4.581
    9TRP    NE1 2524   0.909   7.646   4.589
    9TRP    HE1 2525   0.822   7.645   4.642
    9TRP    CE2 2526   0.963   7.760   4.528
    9TRP    CZ2 2527   0.939   7.897   4.544
    9TRP    HZ2 2528   0.863   7.935   4.610
    9TRP    CH2 2529   1.018   7.984   4.474
    9TRP    HH2 2530   0.997   8.090   4.486
    9TRP    CZ3 2531   1.105   7.940   4.379
    9TRP    HZ3 2532   1.171   8.013   4.335
    9TRP    CE3 2533   1.129   7.805   4.358
    9TRP    HE3 2534   1.204   7.778   4.285
    9TRP    CD2 2535   1.059   7.710   4.437
    9TRP      C 2536   1.360   7.473   4.534
    9TRP      O 2537   1.395   7.367   4.572
   10ARG      N 2538   1.340   7.579   4.611
   10ARG      H 2539   1.265   7.638   4.578
   10ARG     CA 2540   1.365   7.586   4.756
   10ARG     HA 2541   1.465   7.548   4.776
   10ARG     CB 2542   1.355   7.728   4.819
   10ARG    HB2 2543   1.253   7.755   4.846
   10ARG    HB3 2544   1.419   7.726   4.908
   10ARG     CG 2545   1.399   7.840   4.726
   10ARG    HG2 2546   1.497   7.826   4.682
   10ARG    HG3 2547   1.327   7.845   4.646
   10ARG     CD 2548   1.400   7.976   4.792
   10ARG    HD2 2549   1.308   7.982   4.848
   10ARG    HD3 2550   1.468   7.976   4.878
   10ARG     NE 2551   1.427   8.081   4.685
   10ARG     HE 2552   1.506   8.071   4.625
   10ARG     CZ 2553   1.351   8.178   4.653
   10ARG    NH1 2554   1.232   8.198   4.707
   10ARG   HH11 2555   1.196   8.135   4.777
   10ARG   HH12 2556   1.188   8.286   4.685
   10ARG    NH2 2557   1.386   8.267   4.565
   10ARG   HH21 2558   1.429   8.223   4.485
   10ARG   HH22 2559   1.313   8.333   4.550
   10ARG      C 2560   1.282   7.483   4.836
   10ARG      O 2561   1.176   7.439   4.796
   11ARG      N 2562   1.336   7.443   4.951
   11ARG      H 2563   1.412   7.501   4.982
   11ARG     CA 2564   1.283   7.343   5.048
   11ARG     HA 2565   1.175   7.349   5.064
   11ARG     CB 2566   1.317   7.194   5.012
   11ARG    HB2 2567   1.417   7.179   4.970
   11ARG    HB3 2568   1.310   7.120   5.091
   11ARG     CG 2569   1.230   7.143   4.897
   11ARG    HG2 2570   1.127   7.134   4.931
   11ARG    HG3 2571   1.230   7.206   4.809
   11ARG     CD 2572   1.282   7.007   4.853
   11ARG    HD2 2573   1.228   6.981   4.762
   11ARG    HD3 2574   1.385   7.013   4.820
   11ARG     NE 2575   1.264   6.904   4.962
   11ARG     HE 2576   1.344   6.911   5.024
   11ARG     CZ 2577   1.147   6.859   5.006
   11ARG    NH1 2578   1.041   6.873   4.929
   11ARG   HH11 2579   1.059   6.916   4.840
   11ARG   HH12 2580   0.955   6.830   4.959
   11ARG    NH2 2581   1.134   6.799   5.116
   11ARG   HH21 2582   1.212   6.777   5.176
   11ARG   HH22 2583   1.039   6.792   5.150
   11ARG      C 2584   1.353   7.367   5.180
   11ARG      O 2585   1.456   7.429   5.191
   12LYS      N 2586   1.285   7.318   5.285
   12LYS      H 2587   1.213   7.252   5.261
   12LYS     CA 2588   1.331   7.320   5.425
   12LYS     HA 2589   1.439   7.331   5.427
   12LYS     CB 2590   1.267   7.439   5.501
   12LYS    HB2 2591   1.161   7.413   5.501
   12LYS    HB3 2592   1.302   7.434   5.604
   12LYS     CG 2593   1.289   7.582   5.447
   12LYS    HG2 2594   1.395   7.592   5.428
   12LYS    HG3 2595   1.253   7.593   5.345
   12LYS     CD 2596   1.231   7.697   5.531
   12LYS    HD2 2597   1.271   7.667   5.628
   12LYS    HD3 2598   1.268   7.794   5.499
   12LYS     CE 2599   1.080   7.689   5.554
   12LYS    HE2 2600   1.021   7.701   5.464
   12LYS    HE3 2601   1.049   7.591   5.589
   12LYS     NZ 2602   1.051   7.780   5.667
   12LYS    HZ1 2603   1.049   7.876   5.634
   12LYS    HZ2 2604   0.956   7.764   5.696
   12LYS    HZ3 2605   1.108   7.761   5.748
   12LYS      C 2606   1.304   7.186   5.504
   12LYS      O 2607   1.213   7.114   5.467
   13NHE      N 2608   1.369   7.167   5.615
   13NHE    HN1 2609   1.443   7.234   5.633
   13NHE    HN2 2610   1.347   7.086   5.669
    1ILE      N 2611   4.173   2.939   2.967
    1ILE     H1 2612   4.081   2.974   2.943
    1ILE     H2 2613   4.225   3.003   3.024
    1ILE     H3 2614   4.170   2.855   3.024
    1ILE     CA 2615   4.248   2.914   2.841
    1ILE     HA 2616   4.351   2.890   2.868
    1ILE     CB 2617   4.202   2.794   2.759
    1ILE     HB 2618   4.270   2.795   2.673
    1ILE    CG2 2619   4.238   2.672   2.845
    1ILE   HG21 2620   4.175   2.646   2.930
    1ILE   HG22 2621   4.228   2.580   2.788
    1ILE   HG23 2622   4.344   2.671   2.867
    1ILE    CG1 2623   4.054   2.800   2.726
    1ILE   HG12 2624   4.025   2.900   2.697
    1ILE   HG13 2625   3.991   2.759   2.805
    1ILE    CD1 2626   4.042   2.721   2.595
    1ILE   HD11 2627   3.942   2.727   2.551
    1ILE   HD12 2628   4.115   2.763   2.526
    1ILE   HD13 2629   4.060   2.615   2.608
    1ILE      C 2630   4.261   3.043   2.762
    1ILE      O 2631   4.163   3.123   2.767
    2LEU      N 2632   4.371   3.056   2.688
    2LEU      H 2633   4.431   2.976   2.686
    2LEU     CA 2634   4.396   3.173   2.602
    2LEU     HA 2635   4.365   3.262   2.659
    2LEU     CB 2636   4.547   3.182   2.566
    2LEU    HB2 2637   4.577   3.092   2.512
    2LEU    HB3 2638   4.571   3.269   2.505
    2LEU     CG 2639   4.644   3.179   2.683
    2LEU     HG 2640   4.643   3.095   2.752
    2LEU    CD1 2641   4.786   3.196   2.633
    2LEU   HD11 2642   4.801   3.276   2.560
    2LEU   HD12 2643   4.846   3.212   2.724
    2LEU   HD13 2644   4.833   3.106   2.594
    2LEU    CD2 2645   4.604   3.299   2.771
    2LEU   HD21 2646   4.513   3.270   2.825
    2LEU   HD22 2647   4.688   3.316   2.840
    2LEU   HD23 2648   4.594   3.390   2.713
    2LEU      C 2649   4.307   3.163   2.474
    2LEU      O 2650   4.279   3.055   2.427
    3ARG      N 2651   4.257   3.275   2.417
    3ARG      H 2652   4.271   3.362   2.466
    3ARG     CA 2653   4.180   3.278   2.292
    3ARG     HA 2654   4.134   3.179   2.291
    3ARG     CB 2655   4.069   3.380   2.314
    3ARG    HB2 2656   4.114   3.478   2.320
    3ARG    HB3 2657   4.000   3.375   2.229
    3ARG     CG 2658   3.974   3.359   2.433
    3ARG    HG2 2659   4.027   3.378   2.526
    3ARG    HG3 2660   3.902   3.441   2.433
    3ARG     CD 2661   3.899   3.224   2.440
    3ARG    HD2 2662   3.826   3.215   2.359
    3ARG    HD3 2663   3.957   3.133   2.422
    3ARG     NE 2664   3.814   3.206   2.566
    3ARG     HE 2665   3.792   3.289   2.617
    3ARG     CZ 2666   3.761   3.091   2.605
    3ARG    NH1 2667   3.791   2.978   2.550
    3ARG   HH11 2668   3.826   2.982   2.456
    3ARG   HH12 2669   3.748   2.898   2.595
    3ARG    NH2 2670   3.675   3.097   2.703
    3ARG   HH21 2671   3.660   3.183   2.754
    3ARG   HH22 2672   3.664   3.009   2.751
    3ARG      C 2673   4.262   3.275   2.162
    3ARG      O 2674   4.202   3.275   2.053
    4TRP      N 2675   4.394   3.256   2.173
    4TRP      H 2676   4.426   3.228   2.265
    4TRP     CA 2677   4.480   3.221   2.056
    4TRP     HA 2678   4.414   3.211   1.969
    4TRP     CB 2679   4.574   3.341   2.033
    4TRP    HB2 2680   4.659   3.313   1.972
    4TRP    HB3 2681   4.522   3.415   1.972
    4TRP     CG 2682   4.639   3.403   2.167
    4TRP    CD1 2683   4.739   3.335   2.233
    4TRP    HD1 2684   4.768   3.231   2.219
    4TRP    NE1 2685   4.788   3.416   2.331
    4TRP    HE1 2686   4.872   3.406   2.387
    4TRP    CE2 2687   4.717   3.537   2.343
    4TRP    CZ2 2688   4.714   3.648   2.427
    4TRP    HZ2 2689   4.780   3.655   2.511
    4TRP    CH2 2690   4.627   3.756   2.410
    4TRP    HH2 2691   4.631   3.845   2.472
    4TRP    CZ3 2692   4.530   3.750   2.306
    4TRP    HZ3 2693   4.450   3.822   2.289
    4TRP    CE3 2694   4.530   3.636   2.225
    4TRP    HE3 2695   4.469   3.629   2.136
    4TRP    CD2 2696   4.623   3.529   2.236
    4TRP      C 2697   4.547   3.078   2.074
    4TRP      O 2698   4.555   3.032   2.186
    5PRO      N 2699   4.592   3.011   1.963
    5PRO     CD 2700   4.581   3.046   1.826
    5PRO    HD2 2701   4.611   3.149   1.806
    5PRO    HD3 2702   4.479   3.035   1.792
    5PRO     CG 2703   4.669   2.949   1.747
    5PRO    HG2 2704   4.772   2.987   1.749
    5PRO    HG3 2705   4.634   2.929   1.646
    5PRO     CB 2706   4.677   2.819   1.842
    5PRO    HB2 2707   4.769   2.764   1.830
    5PRO    HB3 2708   4.585   2.762   1.826
    5PRO     CA 2709   4.665   2.883   1.987
    5PRO     HA 2710   4.596   2.822   2.045
    5PRO      C 2711   4.796   2.904   2.061
    5PRO      O 2712   4.882   2.983   2.022
    6TRP      N 2713   4.807   2.823   2.164
    6TRP      H 2714   4.733   2.757   2.181
    6TRP     CA 2715   4.919   2.824   2.264
    6TRP     HA 2716   4.964   2.923   2.254
    6TRP     CB 2717   4.874   2.831   2.410
    6TRP    HB2 2718   4.819   2.924   2.429
    6TRP    HB3 2719   4.812   2.745   2.433
    6TRP     CG 2720   4.995   2.821   2.499
    6TRP    CD1 2721   5.018   2.716   2.583
    6TRP    HD1 2722   4.959   2.625   2.589
    6TRP    NE1 2723   5.133   2.730   2.645
    6TRP    HE1 2724   5.166   2.675   2.722
    6TRP    CE2 2725   5.186   2.854   2.613
    6TRP    CZ2 2726   5.309   2.918   2.655
    6TRP    HZ2 2727   5.378   2.886   2.732
    6TRP    CH2 2728   5.345   3.042   2.600
    6TRP    HH2 2729   5.435   3.094   2.629
    6TRP    CZ3 2730   5.260   3.102   2.510
    6TRP    HZ3 2731   5.274   3.204   2.477
    6TRP    CE3 2732   5.150   3.035   2.462
    6TRP    HE3 2733   5.081   3.098   2.408
    6TRP    CD2 2734   5.105   2.911   2.512
    6TRP      C 2735   5.020   2.710   2.245
    6TRP      O 2736   4.985   2.594   2.252
    7TRP      N 2737   5.148   2.742   2.219
    7TRP      H 2738   5.166   2.839   2.197
    7TRP     CA 2739   5.251   2.642   2.240
    7TRP     HA 2740   5.214   2.547   2.279
    7TRP     CB 2741   5.300   2.605   2.100
    7TRP    HB2 2742   5.220   2.580   2.030
    7TRP    HB3 2743   5.355   2.689   2.057
    7TRP     CG 2744   5.393   2.494   2.097
    7TRP    CD1 2745   5.505   2.486   2.030
    7TRP    HD1 2746   5.545   2.569   1.971
    7TRP    NE1 2747   5.563   2.364   2.052
    7TRP    HE1 2748   5.653   2.335   2.017
    7TRP    CE2 2749   5.481   2.274   2.123
    7TRP    CZ2 2750   5.495   2.137   2.157
    7TRP    HZ2 2751   5.584   2.082   2.128
    7TRP    CH2 2752   5.382   2.074   2.216
    7TRP    HH2 2753   5.382   1.966   2.223
    7TRP    CZ3 2754   5.260   2.148   2.224
    7TRP    HZ3 2755   5.169   2.094   2.248
    7TRP    CE3 2756   5.255   2.286   2.200
    7TRP    HE3 2757   5.160   2.337   2.204
    7TRP    CD2 2758   5.366   2.355   2.145
    7TRP      C 2759   5.357   2.699   2.333
    7TRP      O 2760   5.405   2.807   2.312
    8PRO      N 2761   5.406   2.618   2.430
    8PRO     CD 2762   5.343   2.500   2.493
    8PRO    HD2 2763   5.384   2.412   2.443
    8PRO    HD3 2764   5.235   2.510   2.485
    8PRO     CG 2765   5.401   2.494   2.635
    8PRO    HG2 2766   5.383   2.389   2.663
    8PRO    HG3 2767   5.350   2.564   2.701
    8PRO     CB 2768   5.544   2.542   2.615
    8PRO    HB2 2769   5.606   2.464   2.573
    8PRO    HB3 2770   5.576   2.580   2.711
    8PRO     CA 2771   5.520   2.652   2.513
    8PRO     HA 2772   5.497   2.747   2.563
    8PRO      C 2773   5.657   2.677   2.439
    8PRO      O 2774   5.760   2.705   2.501
    9TRP      N 2775   5.658   2.687   2.306
    9TRP      H 2776   5.571   2.673   2.257
    9TRP     CA 2777   5.769   2.725   2.219
    9TRP     HA 2778   5.850   2.782   2.266
    9TRP     CB 2779   5.839   2.592   2.182
    9TRP    HB2 2780   5.874   2.536   2.268
    9TRP    HB3 2781   5.767   2.531   2.127
    9TRP     CG 2782   5.959   2.600   2.094
    9TRP    CD1 2783   5.973   2.551   1.967
    9TRP    HD1 2784   5.900   2.489   1.917
    9TRP    NE1 2785   6.105   2.567   1.924
    9TRP    HE1 2786   6.146   2.517   1.846
    9TRP    CE2 2787   6.177   2.647   2.014
    9TRP    CZ2 2788   6.304   2.705   2.010
    9TRP    HZ2 2789   6.371   2.687   1.927
    9TRP    CH2 2790   6.340   2.787   2.113
    9TRP    HH2 2791   6.440   2.828   2.109
    9TRP    CZ3 2792   6.263   2.798   2.225
    9TRP    HZ3 2793   6.293   2.871   2.297
    9TRP    CE3 2794   6.137   2.740   2.234
    9TRP    HE3 2795   6.080   2.758   2.323
    9TRP    CD2 2796   6.089   2.664   2.124
    9TRP      C 2797   5.723   2.810   2.102
    9TRP      O 2798   5.613   2.796   2.063
   10ARG      N 2799   5.818   2.876   2.037
   10ARG      H 2800   5.910   2.837   2.051
   10ARG     CA 2801   5.801   2.951   1.911
   10ARG     HA 2802   5.715   3.016   1.921
   10ARG     CB 2803   5.922   3.039   1.868
   10ARG    HB2 2804   5.997   2.982   1.812
   10ARG    HB3 2805   5.881   3.119   1.806
   10ARG     CG 2806   6.000   3.098   1.984
   10ARG    HG2 2807   5.939   3.152   2.056
   10ARG    HG3 2808   6.047   3.016   2.036
   10ARG     CD 2809   6.110   3.193   1.941
   10ARG    HD2 2810   6.161   3.143   1.860
   10ARG    HD3 2811   6.069   3.276   1.884
   10ARG     NE 2812   6.192   3.230   2.064
   10ARG     HE 2813   6.145   3.266   2.145
   10ARG     CZ 2814   6.316   3.209   2.082
   10ARG    NH1 2815   6.393   3.145   1.995
   10ARG   HH11 2816   6.353   3.110   1.909
   10ARG   HH12 2817   6.491   3.148   2.013
   10ARG    NH2 2818   6.378   3.251   2.188
   10ARG   HH21 2819   6.323   3.234   2.271
   10ARG   HH22 2820   6.474   3.223   2.187
   10ARG      C 2821   5.753   2.861   1.795
   10ARG      O 2822   5.774   2.741   1.791
   11ARG      N 2823   5.682   2.922   1.699
   11ARG      H 2824   5.689   3.023   1.704
   11ARG     CA 2825   5.620   2.864   1.579
   11ARG     HA 2826   5.680   2.789   1.528
   11ARG     CB 2827   5.478   2.801   1.604
   11ARG    HB2 2828   5.415   2.857   1.673
   11ARG    HB3 2829   5.414   2.785   1.517
   11ARG     CG 2830   5.489   2.666   1.675
   11ARG    HG2 2831   5.533   2.593   1.607
   11ARG    HG3 2832   5.548   2.668   1.766
   11ARG     CD 2833   5.349   2.621   1.714
   11ARG    HD2 2834   5.361   2.534   1.778
   11ARG    HD3 2835   5.302   2.693   1.781
   11ARG     NE 2836   5.265   2.592   1.593
   11ARG     HE 2837   5.224   2.680   1.562
   11ARG     CZ 2838   5.286   2.493   1.507
   11ARG    NH1 2839   5.358   2.391   1.546
   11ARG   HH11 2840   5.391   2.395   1.641
   11ARG   HH12 2841   5.365   2.312   1.483
   11ARG    NH2 2842   5.234   2.491   1.392
   11ARG   HH21 2843   5.170   2.561   1.359
   11ARG   HH22 2844   5.276   2.425   1.328
   11ARG      C 2845   5.594   2.977   1.482
   11ARG      O 2846   5.591   3.094   1.514
   12LYS      N 2847   5.582   2.936   1.355
   12LYS      H 2848   5.566   2.837   1.344
   12LYS     CA 2849   5.550   3.022   1.239
   12LYS     HA 2850   5.502   3.112   1.275
   12LYS     CB 2851   5.680   3.060   1.163
   12LYS    HB2 2852   5.714   2.964   1.125
   12LYS    HB3 2853   5.650   3.122   1.078
   12LYS     CG 2854   5.793   3.132   1.240
   12LYS    HG2 2855   5.746   3.214   1.295
   12LYS    HG3 2856   5.827   3.073   1.325
   12LYS     CD 2857   5.915   3.176   1.157
   12LYS    HD2 2858   5.862   3.226   1.076
   12LYS    HD3 2859   5.980   3.244   1.213
   12LYS     CE 2860   5.986   3.062   1.085
   12LYS    HE2 2861   6.034   2.991   1.151
   12LYS    HE3 2862   5.918   3.000   1.029
   12LYS     NZ 2863   6.071   3.126   0.982
   12LYS    HZ1 2864   6.156   3.162   1.026
   12LYS    HZ2 2865   6.106   3.053   0.921
   12LYS    HZ3 2866   6.020   3.189   0.923
   12LYS      C 2867   5.446   2.959   1.139
   12LYS      O 2868   5.435   2.838   1.133
   13NHE      N 2869   5.388   3.039   1.054
   13NHE    HN1 2870   5.404   3.138   1.071
   13NHE    HN2 2871   5.328   3.000   0.985
    1ILE      N 2872   5.899   6.254   9.915
    1ILE     H1 2873   5.828   6.298   9.973
    1ILE     H2 2874   5.885   6.155   9.907
    1ILE     H3 2875   5.896   6.284   9.818
    1ILE     CA 2876   6.032   6.280   9.976
    1ILE     HA 2877   6.105   6.220   9.922
    1ILE     CB 2878   6.083   6.423   9.963
    1ILE     HB 2879   6.180   6.420  10.014
    1ILE    CG2 2880   6.109   6.442   9.813
    1ILE   HG21 2881   6.025   6.459   9.746
    1ILE   HG22 2882   6.165   6.534   9.794
    1ILE   HG23 2883   6.180   6.367   9.777
    1ILE    CG1 2884   5.985   6.525  10.018
    1ILE   HG12 2885   5.941   6.491  10.111
    1ILE   HG13 2886   5.909   6.555   9.944
    1ILE    CD1 2887   6.073   6.642  10.061
    1ILE   HD11 2888   6.017   6.719  10.115
    1ILE   HD12 2889   6.151   6.602  10.126
    1ILE   HD13 2890   6.118   6.694   9.978
    1ILE      C 2891   6.037   6.224  10.116
    1ILE      O 2892   5.930   6.229  10.184
    2LEU      N 2893   6.156   6.181  10.159
    2LEU      H 2894   6.232   6.197  10.096
    2LEU     CA 2895   6.178   6.128  10.295
    2LEU     HA 2896   6.092   6.064  10.319
    2LEU     CB 2897   6.310   6.045  10.299
    2LEU    HB2 2898   6.393   6.110  10.272
    2LEU    HB3 2899   6.329   6.001  10.397
    2LEU     CG 2900   6.323   5.936  10.195
    2LEU     HG 2901   6.316   5.960  10.090
    2LEU    CD1 2902   6.453   5.859  10.218
    2LEU   HD11 2903   6.474   5.831  10.321
    2LEU   HD12 2904   6.445   5.772  10.151
    2LEU   HD13 2905   6.542   5.907  10.177
    2LEU    CD2 2906   6.203   5.843  10.219
    2LEU   HD21 2907   6.115   5.893  10.178
    2LEU   HD22 2908   6.225   5.750  10.166
    2LEU   HD23 2909   6.193   5.815  10.324
    2LEU      C 2910   6.180   6.246  10.396
    2LEU      O 2911   6.223   6.355  10.363
    3ARG      N 2912   6.131   6.230  10.521
    3ARG      H 2913   6.085   6.143  10.541
    3ARG     CA 2914   6.137   6.332  10.627
    3ARG     HA 2915   6.139   6.424  10.570
    3ARG     CB 2916   6.004   6.323  10.700
    3ARG    HB2 2917   5.999   6.229  10.753
    3ARG    HB3 2918   5.997   6.407  10.770
    3ARG     CG 2919   5.875   6.342  10.617
    3ARG    HG2 2920   5.860   6.255  10.553
    3ARG    HG3 2921   5.790   6.333  10.685
    3ARG     CD 2922   5.863   6.472  10.535
    3ARG    HD2 2923   5.852   6.560  10.600
    3ARG    HD3 2924   5.949   6.504  10.477
    3ARG     NE 2925   5.737   6.480  10.448
    3ARG     HE 2926   5.663   6.417  10.470
    3ARG     CZ 2927   5.718   6.569  10.352
    3ARG    NH1 2928   5.811   6.649  10.311
    3ARG   HH11 2929   5.886   6.668  10.375
    3ARG   HH12 2930   5.783   6.707  10.233
    3ARG    NH2 2931   5.598   6.574  10.301
    3ARG   HH21 2932   5.528   6.505  10.324
    3ARG   HH22 2933   5.596   6.616  10.210
    3ARG      C 2934   6.270   6.341  10.705
    3ARG      O 2935   6.281   6.427  10.794
    4TRP      N 2936   6.372   6.267  10.660
    4TRP      H 2937   6.359   6.225  10.570
    4TRP     CA 2938   6.512   6.290  10.706
    4TRP     HA 2939   6.512   6.376  10.773
    4TRP     CB 2940   6.554   6.164  10.785
    4TRP    HB2 2941   6.662   6.158  10.795
    4TRP    HB3 2942   6.519   6.176  10.888
    4TRP     CG 2943   6.511   6.024  10.718
    4TRP    CD1 2944   6.578   5.977  10.607
    4TRP    HD1 2945   6.644   6.033  10.543
    4TRP    NE1 2946   6.533   5.851  10.582
    4TRP    HE1 2947   6.573   5.781  10.519
    4TRP    CE2 2948   6.429   5.810  10.667
    4TRP    CZ2 2949   6.342   5.703  10.681
    4TRP    HZ2 2950   6.346   5.620  10.612
    4TRP    CH2 2951   6.246   5.693  10.781
    4TRP    HH2 2952   6.184   5.605  10.795
    4TRP    CZ3 2953   6.228   5.804  10.869
    4TRP    HZ3 2954   6.150   5.813  10.944
    4TRP    CE3 2955   6.312   5.914  10.852
    4TRP    HE3 2956   6.314   5.996  10.922
    4TRP    CD2 2957   6.416   5.921  10.756
    4TRP      C 2958   6.607   6.333  10.585
    4TRP      O 2959   6.571   6.308  10.472
    5PRO      N 2960   6.724   6.400  10.612
    5PRO     CD 2961   6.775   6.445  10.736
    5PRO    HD2 2962   6.771   6.369  10.815
    5PRO    HD3 2963   6.719   6.530  10.772
    5PRO     CG 2964   6.920   6.489  10.713
    5PRO    HG2 2965   6.984   6.401  10.718
    5PRO    HG3 2966   6.953   6.569  10.779
    5PRO     CB 2967   6.922   6.526  10.556
    5PRO    HB2 2968   7.020   6.511  10.511
    5PRO    HB3 2969   6.881   6.627  10.546
    5PRO     CA 2970   6.814   6.427  10.496
    5PRO     HA 2971   6.753   6.483  10.426
    5PRO      C 2972   6.868   6.300  10.433
    5PRO      O 2973   6.926   6.213  10.499
    6TRP      N 2974   6.851   6.300  10.303
    6TRP      H 2975   6.809   6.381  10.260
    6TRP     CA 2976   6.884   6.185  10.211
    6TRP     HA 2977   6.888   6.098  10.276
    6TRP     CB 2978   6.770   6.143  10.118
    6TRP    HB2 2979   6.684   6.108  10.177
    6TRP    HB3 2980   6.742   6.227  10.056
    6TRP     CG 2981   6.820   6.036  10.026
    6TRP    CD1 2982   6.831   6.052   9.891
    6TRP    HD1 2983   6.816   6.145   9.837
    6TRP    NE1 2984   6.882   5.945   9.835
    6TRP    HE1 2985   6.887   5.925   9.737
    6TRP    CE2 2986   6.895   5.846   9.931
    6TRP    CZ2 2987   6.944   5.710   9.921
    6TRP    HZ2 2988   6.967   5.653   9.832
    6TRP    CH2 2989   6.956   5.631  10.037
    6TRP    HH2 2990   6.991   5.529  10.034
    6TRP    CZ3 2991   6.916   5.685  10.158
    6TRP    HZ3 2992   6.907   5.625  10.247
    6TRP    CE3 2993   6.881   5.817  10.167
    6TRP    HE3 2994   6.834   5.844  10.261
    6TRP    CD2 2995   6.865   5.904  10.057
    6TRP      C 2996   7.013   6.206  10.130
    6TRP      O 2997   7.025   6.300  10.054
    7TRP      N 2998   7.114   6.118  10.147
    7TRP      H 2999   7.104   6.054  10.225
    7TRP     CA 3000   7.218   6.110  10.047
    7TRP     HA 3001   7.203   6.178   9.963
    7TRP     CB 3002   7.343   6.168  10.114
    7TRP    HB2 3003   7.327   6.264  10.163
    7TRP    HB3 3004   7.377   6.099  10.192
    7TRP     CG 3005   7.456   6.184  10.025
    7TRP    CD1 3006   7.581   6.150  10.049
    7TRP    HD1 3007   7.612   6.098  10.139
    7TRP    NE1 3008   7.658   6.184   9.940
    7TRP    HE1 3009   7.756   6.164   9.930
    7TRP    CE2 3010   7.590   6.261   9.844
    7TRP    CZ2 3011   7.632   6.327   9.725
    7TRP    HZ2 3012   7.736   6.321   9.693
    7TRP    CH2 3013   7.537   6.411   9.661
    7TRP    HH2 3014   7.573   6.478   9.584
    7TRP    CZ3 3015   7.412   6.434   9.726
    7TRP    HZ3 3016   7.349   6.514   9.690
    7TRP    CE3 3017   7.372   6.358   9.837
    7TRP    HE3 3018   7.278   6.381   9.886
    7TRP    CD2 3019   7.461   6.270   9.903
    7TRP      C 3020   7.230   5.967   9.998
    7TRP      O 3021   7.239   5.877  10.077
    8PRO      N 3022   7.246   5.946   9.866
    8PRO     CD 3023   7.207   6.033   9.752
    8PRO    HD2 3024   7.296   6.088   9.722
    8PRO    HD3 3025   7.124   6.097   9.785
    8PRO     CG 3026   7.179   5.939   9.636
    8PRO    HG2 3027   7.188   6.005   9.549
    8PRO    HG3 3028   7.079   5.894   9.644
    8PRO     CB 3029   7.281   5.828   9.656
    8PRO    HB2 3030   7.379   5.860   9.623
    8PRO    HB3 3031   7.242   5.740   9.607
    8PRO     CA 3032   7.277   5.816   9.808
    8PRO     HA 3033   7.199   5.747   9.840
    8PRO      C 3034   7.412   5.750   9.853
    8PRO      O 3035   7.449   5.641   9.809
    9TRP      N 3036   7.479   5.802   9.956
    9TRP      H 3037   7.444   5.887   9.997
    9TRP     CA 3038   7.598   5.748  10.024
    9TRP     HA 3039   7.614   5.641  10.014
    9TRP     CB 3040   7.719   5.809   9.950
    9TRP    HB2 3041   7.721   5.785   9.844
    9TRP    HB3 3042   7.714   5.917   9.962
    9TRP     CG 3043   7.855   5.769   9.997
    9TRP    CD1 3044   7.949   5.849  10.053
    9TRP    HD1 3045   7.942   5.957  10.060
    9TRP    NE1 3046   8.068   5.778  10.071
    9TRP    HE1 3047   8.159   5.819  10.086
    9TRP    CE2 3048   8.047   5.641  10.046
    9TRP    CZ2 3049   8.126   5.527  10.065
    9TRP    HZ2 3050   8.228   5.534  10.100
    9TRP    CH2 3051   8.070   5.405  10.038
    9TRP    HH2 3052   8.134   5.319  10.051
    9TRP    CZ3 3053   7.948   5.396   9.979
    9TRP    HZ3 3054   7.906   5.297   9.971
    9TRP    CE3 3055   7.867   5.506   9.956
    9TRP    HE3 3056   7.769   5.489   9.915
    9TRP    CD2 3057   7.916   5.635   9.994
    9TRP      C 3058   7.593   5.774  10.174
    9TRP      O 3059   7.533   5.868  10.212
   10ARG      N 3060   7.676   5.701  10.247
   10ARG      H 3061   7.754   5.665  10.195
   10ARG     CA 3062   7.703   5.720  10.391
   10ARG     HA 3063   7.608   5.726  10.443
   10ARG     CB 3064   7.786   5.608  10.459
   10ARG    HB2 3065   7.894   5.623  10.448
   10ARG    HB3 3066   7.759   5.609  10.565
   10ARG     CG 3067   7.764   5.470  10.401
   10ARG    HG2 3068   7.659   5.440  10.396
   10ARG    HG3 3069   7.802   5.471  10.300
   10ARG     CD 3070   7.837   5.360  10.475
   10ARG    HD2 3071   7.937   5.397  10.492
   10ARG    HD3 3072   7.805   5.357  10.580
   10ARG     NE 3073   7.821   5.230  10.397
   10ARG     HE 3074   7.729   5.199  10.370
   10ARG     CZ 3075   7.914   5.159  10.348
   10ARG    NH1 3076   8.042   5.193  10.353
   10ARG   HH11 3077   8.070   5.278  10.399
   10ARG   HH12 3078   8.108   5.122  10.325
   10ARG    NH2 3079   7.891   5.046  10.288
   10ARG   HH21 3080   7.812   5.054  10.226
   10ARG   HH22 3081   7.976   5.006  10.253
   10ARG      C 3082   7.760   5.860  10.424
   10ARG      O 3083   7.821   5.927  10.343
   11ARG      N 3084   7.733   5.906  10.547
   11ARG      H 3085   7.700   5.834  10.609
   11ARG     CA 3086   7.770   6.036  10.606
   11ARG     HA 3087   7.870   6.071  10.581
   11ARG     CB 3088   7.671   6.153  10.572
   11ARG    HB2 3089   7.565   6.125  10.570
   11ARG    HB3 3090   7.673   6.242  10.635
   11ARG     CG 3091   7.690   6.202  10.428
   11ARG    HG2 3092   7.786   6.253  10.420
   11ARG    HG3 3093   7.687   6.124  10.353
   11ARG     CD 3094   7.579   6.300  10.395
   11ARG    HD2 3095   7.586   6.320  10.288
   11ARG    HD3 3096   7.481   6.252  10.403
   11ARG     NE 3097   7.588   6.425  10.478
   11ARG     HE 3098   7.541   6.407  10.566
   11ARG     CZ 3099   7.685   6.515  10.470
   11ARG    NH1 3100   7.757   6.520  10.361
   11ARG   HH11 3101   7.731   6.454  10.289
   11ARG   HH12 3102   7.824   6.595  10.352
   11ARG    NH2 3103   7.707   6.599  10.561
   11ARG   HH21 3104   7.649   6.608  10.643
   11ARG   HH22 3105   7.797   6.645  10.555
   11ARG      C 3106   7.760   6.022  10.756
   11ARG      O 3107   7.699   5.933  10.811
   12LYS      N 3108   7.833   6.113  10.823
   12LYS      H 3109   7.862   6.192  10.767
   12LYS     CA 3110   7.838   6.129  10.969
   12LYS     HA 3111   7.749   6.084  11.012
   12LYS     CB 3112   7.964   6.058  11.027
   12LYS    HB2 3113   8.045   6.117  10.984
   12LYS    HB3 3114   7.964   6.075  11.134
   12LYS     CG 3115   7.984   5.908  10.998
   12LYS    HG2 3116   7.890   5.859  11.022
   12LYS    HG3 3117   7.987   5.887  10.892
   12LYS     CD 3118   8.106   5.841  11.065
   12LYS    HD2 3119   8.090   5.877  11.167
   12LYS    HD3 3120   8.102   5.733  11.059
   12LYS     CE 3121   8.240   5.904  11.029
   12LYS    HE2 3122   8.268   5.891  10.925
   12LYS    HE3 3123   8.240   6.012  11.039
   12LYS     NZ 3124   8.336   5.856  11.130
   12LYS    HZ1 3125   8.366   5.762  11.108
   12LYS    HZ2 3126   8.422   5.909  11.119
   12LYS    HZ3 3127   8.306   5.874  11.224
   12LYS      C 3128   7.834   6.279  11.019
   12LYS      O 3129   7.872   6.366  10.943
   13NHE      N 3130   7.805   6.300  11.144
   13NHE    HN1 3131   7.773   6.218  11.195
   13NHE    HN2 3132   7.809   6.393  11.178
    1ILE      N 3133   4.350   7.066   6.062
    1ILE     H1 3134   4.390   7.073   5.969
    1ILE     H2 3135   4.405   7.009   6.123
    1ILE     H3 3136   4.347   7.155   6.111
    1ILE     CA 3137   4.214   7.007   6.049
    1ILE     HA 3138   4.177   6.987   6.149
    1ILE     CB 3139   4.108   7.099   5.989
    1ILE     HB 3140   4.018   7.037   5.988
    1ILE    CG2 3141   4.088   7.210   6.093
    1ILE   HG21 3142   4.162   7.290   6.102
    1ILE   HG22 3143   4.001   7.270   6.070
    1ILE   HG23 3144   4.059   7.167   6.189
    1ILE    CG1 3145   4.149   7.155   5.853
    1ILE   HG12 3146   4.196   7.078   5.793
    1ILE   HG13 3147   4.211   7.245   5.861
    1ILE    CD1 3148   4.017   7.180   5.781
    1ILE   HD11 3149   4.030   7.209   5.677
    1ILE   HD12 3150   3.959   7.088   5.787
    1ILE   HD13 3151   3.961   7.262   5.825
    1ILE      C 3152   4.223   6.871   5.985
    1ILE      O 3153   4.311   6.855   5.896
    2LEU      N 3154   4.130   6.781   6.022
    2LEU      H 3155   4.059   6.817   6.083
    2LEU     CA 3156   4.122   6.646   5.965
    2LEU     HA 3157   4.224   6.608   5.957
    2LEU     CB 3158   4.038   6.554   6.058
    2LEU    HB2 3159   3.937   6.595   6.067
    2LEU    HB3 3160   4.032   6.452   6.022
    2LEU     CG 3161   4.080   6.550   6.203
    2LEU     HG 3162   4.084   6.641   6.261
    2LEU    CD1 3163   3.994   6.450   6.279
    2LEU   HD11 3164   3.978   6.354   6.230
    2LEU   HD12 3165   4.042   6.440   6.377
    2LEU   HD13 3166   3.896   6.487   6.311
    2LEU    CD2 3167   4.226   6.501   6.201
    2LEU   HD21 3168   4.287   6.586   6.170
    2LEU   HD22 3169   4.250   6.471   6.304
    2LEU   HD23 3170   4.239   6.413   6.140
    2LEU      C 3171   4.062   6.654   5.821
    2LEU      O 3172   3.980   6.739   5.793
    3ARG      N 3173   4.103   6.569   5.725
    3ARG      H 3174   4.180   6.508   5.748
    3ARG     CA 3175   4.046   6.561   5.590
    3ARG     HA 3176   4.010   6.662   5.574
    3ARG     CB 3177   4.165   6.539   5.496
    3ARG    HB2 3178   4.205   6.440   5.515
    3ARG    HB3 3179   4.130   6.547   5.393
    3ARG     CG 3180   4.279   6.642   5.499
    3ARG    HG2 3181   4.334   6.632   5.592
    3ARG    HG3 3182   4.355   6.610   5.427
    3ARG     CD 3183   4.241   6.790   5.474
    3ARG    HD2 3184   4.209   6.805   5.371
    3ARG    HD3 3185   4.154   6.829   5.526
    3ARG     NE 3186   4.358   6.888   5.488
    3ARG     HE 3187   4.450   6.848   5.485
    3ARG     CZ 3188   4.346   7.019   5.495
    3ARG    NH1 3189   4.231   7.077   5.508
    3ARG   HH11 3190   4.150   7.026   5.477
    3ARG   HH12 3191   4.238   7.178   5.519
    3ARG    NH2 3192   4.455   7.088   5.487
    3ARG   HH21 3193   4.546   7.043   5.489
    3ARG   HH22 3194   4.447   7.181   5.526
    3ARG      C 3195   3.916   6.480   5.575
    3ARG      O 3196   3.863   6.472   5.463
    4TRP      N 3197   3.859   6.435   5.688
    4TRP      H 3198   3.896   6.473   5.773
    4TRP     CA 3199   3.719   6.383   5.690
    4TRP     HA 3200   3.678   6.394   5.589
    4TRP     CB 3201   3.729   6.233   5.724
    4TRP    HB2 3202   3.633   6.194   5.758
    4TRP    HB3 3203   3.747   6.178   5.631
    4TRP     CG 3204   3.832   6.197   5.842
    4TRP    CD1 3205   3.801   6.226   5.973
    4TRP    HD1 3206   3.722   6.291   6.008
    4TRP    NE1 3207   3.896   6.170   6.053
    4TRP    HE1 3208   3.895   6.157   6.154
    4TRP    CE2 3209   4.001   6.110   5.981
    4TRP    CZ2 3210   4.123   6.050   6.006
    4TRP    HZ2 3211   4.160   6.041   6.107
    4TRP    CH2 3212   4.207   5.998   5.907
    4TRP    HH2 3213   4.299   5.945   5.929
    4TRP    CZ3 3214   4.169   6.015   5.770
    4TRP    HZ3 3215   4.230   5.990   5.684
    4TRP    CE3 3216   4.048   6.080   5.745
    4TRP    HE3 3217   4.006   6.085   5.646
    4TRP    CD2 3218   3.959   6.125   5.846
    4TRP      C 3219   3.625   6.472   5.782
    4TRP      O 3220   3.677   6.544   5.866
    5PRO      N 3221   3.489   6.468   5.763
    5PRO     CD 3222   3.414   6.399   5.665
    5PRO    HD2 3223   3.444   6.294   5.654
    5PRO    HD3 3224   3.426   6.445   5.568
    5PRO     CG 3225   3.267   6.408   5.705
    5PRO    HG2 3226   3.246   6.329   5.778
    5PRO    HG3 3227   3.197   6.408   5.621
    5PRO     CB 3228   3.261   6.542   5.795
    5PRO    HB2 3229   3.183   6.538   5.871
    5PRO    HB3 3230   3.256   6.626   5.727
    5PRO     CA 3231   3.405   6.545   5.860
    5PRO     HA 3232   3.442   6.646   5.855
    5PRO      C 3233   3.415   6.489   6.002
    5PRO      O 3234   3.395   6.370   6.028
    6TRP      N 3235   3.441   6.585   6.089
    6TRP      H 3236   3.448   6.679   6.056
    6TRP     CA 3237   3.467   6.563   6.235
    6TRP     HA 3238   3.495   6.459   6.244
    6TRP     CB 3239   3.595   6.629   6.287
    6TRP    HB2 3240   3.683   6.586   6.237
    6TRP    HB3 3241   3.590   6.736   6.271
    6TRP     CG 3242   3.603   6.609   6.436
    6TRP    CD1 3243   3.596   6.711   6.527
    6TRP    HD1 3244   3.575   6.814   6.503
    6TRP    NE1 3245   3.601   6.665   6.649
    6TRP    HE1 3246   3.611   6.719   6.733
    6TRP    CE2 3247   3.623   6.528   6.646
    6TRP    CZ2 3248   3.637   6.431   6.752
    6TRP    HZ2 3249   3.647   6.450   6.859
    6TRP    CH2 3250   3.651   6.295   6.722
    6TRP    HH2 3251   3.662   6.220   6.798
    6TRP    CZ3 3252   3.654   6.257   6.589
    6TRP    HZ3 3253   3.681   6.157   6.560
    6TRP    CE3 3254   3.629   6.348   6.490
    6TRP    HE3 3255   3.653   6.312   6.391
    6TRP    CD2 3256   3.615   6.487   6.510
    6TRP      C 3257   3.348   6.601   6.325
    6TRP      O 3258   3.303   6.714   6.326
    7TRP      N 3259   3.293   6.505   6.402
    7TRP      H 3260   3.323   6.410   6.382
    7TRP     CA 3261   3.210   6.542   6.514
    7TRP     HA 3262   3.201   6.650   6.528
    7TRP     CB 3263   3.068   6.502   6.475
    7TRP    HB2 3264   3.037   6.537   6.376
    7TRP    HB3 3265   3.060   6.393   6.473
    7TRP     CG 3266   2.966   6.546   6.568
    7TRP    CD1 3267   2.866   6.476   6.615
    7TRP    HD1 3268   2.853   6.370   6.593
    7TRP    NE1 3269   2.790   6.554   6.698
    7TRP    HE1 3270   2.711   6.523   6.752
    7TRP    CE2 3271   2.827   6.690   6.696
    7TRP    CZ2 3272   2.770   6.807   6.756
    7TRP    HZ2 3273   2.682   6.799   6.818
    7TRP    CH2 3274   2.825   6.932   6.717
    7TRP    HH2 3275   2.771   7.021   6.744
    7TRP    CZ3 3276   2.923   6.933   6.613
    7TRP    HZ3 3277   2.949   7.029   6.569
    7TRP    CE3 3278   2.983   6.815   6.566
    7TRP    HE3 3279   3.054   6.821   6.485
    7TRP    CD2 3280   2.935   6.688   6.604
    7TRP      C 3281   3.264   6.478   6.640
    7TRP      O 3282   3.288   6.360   6.642
    8PRO      N 3283   3.269   6.552   6.753
    8PRO     CD 3284   3.276   6.699   6.767
    8PRO    HD2 3285   3.175   6.734   6.787
    8PRO    HD3 3286   3.321   6.740   6.677
    8PRO     CG 3287   3.351   6.724   6.898
    8PRO    HG2 3288   3.321   6.827   6.923
    8PRO    HG3 3289   3.459   6.714   6.884
    8PRO     CB 3290   3.303   6.610   6.986
    8PRO    HB2 3291   3.204   6.629   7.025
    8PRO    HB3 3292   3.380   6.596   7.062
    8PRO     CA 3293   3.300   6.497   6.885
    8PRO     HA 3294   3.398   6.449   6.876
    8PRO      C 3295   3.203   6.387   6.940
    8PRO      O 3296   3.220   6.335   7.050
    9TRP      N 3297   3.112   6.333   6.858
    9TRP      H 3298   3.105   6.370   6.764
    9TRP     CA 3299   3.023   6.219   6.883
    9TRP     HA 3300   3.055   6.150   6.961
    9TRP     CB 3301   2.894   6.281   6.941
    9TRP    HB2 3302   2.911   6.338   7.032
    9TRP    HB3 3303   2.851   6.346   6.866
    9TRP     CG 3304   2.784   6.187   6.980
    9TRP    CD1 3305   2.660   6.177   6.924
    9TRP    HD1 3306   2.621   6.246   6.850
    9TRP    NE1 3307   2.582   6.087   6.996
    9TRP    HE1 3308   2.481   6.080   6.991
    9TRP    CE2 3309   2.661   6.018   7.089
    9TRP    CZ2 3310   2.637   5.908   7.173
    9TRP    HZ2 3311   2.539   5.862   7.179
    9TRP    CH2 3312   2.741   5.859   7.246
    9TRP    HH2 3313   2.719   5.776   7.312
    9TRP    CZ3 3314   2.860   5.925   7.252
    9TRP    HZ3 3315   2.940   5.875   7.303
    9TRP    CE3 3316   2.888   6.036   7.173
    9TRP    HE3 3317   2.986   6.078   7.178
    9TRP    CD2 3318   2.787   6.083   7.085
    9TRP      C 3319   3.005   6.133   6.759
    9TRP      O 3320   3.016   6.184   6.654
   10ARG      N 3321   2.955   6.012   6.780
   10ARG      H 3322   2.904   6.005   6.867
   10ARG     CA 3323   2.911   5.918   6.675
   10ARG     HA 3324   2.990   5.909   6.601
   10ARG     CB 3325   2.878   5.774   6.724
   10ARG    HB2 3326   2.775   5.765   6.760
   10ARG    HB3 3327   2.894   5.708   6.639
   10ARG     CG 3328   2.962   5.727   6.842
   10ARG    HG2 3329   3.069   5.737   6.827
   10ARG    HG3 3330   2.934   5.788   6.927
   10ARG     CD 3331   2.937   5.583   6.882
   10ARG    HD2 3332   2.829   5.572   6.882
   10ARG    HD3 3333   2.958   5.517   6.798
   10ARG     NE 3334   3.012   5.555   7.011
   10ARG     HE 3335   3.110   5.576   7.017
   10ARG     CZ 3336   2.961   5.518   7.122
   10ARG    NH1 3337   2.831   5.504   7.142
   10ARG   HH11 3338   2.766   5.522   7.067
   10ARG   HH12 3339   2.804   5.460   7.228
   10ARG    NH2 3340   3.035   5.490   7.225
   10ARG   HH21 3341   3.108   5.558   7.236
   10ARG   HH22 3342   2.978   5.466   7.304
   10ARG      C 3343   2.798   5.974   6.587
   10ARG      O 3344   2.720   6.060   6.625
   11ARG      N 3345   2.793   5.926   6.462
   11ARG      H 3346   2.849   5.843   6.449
   11ARG     CA 3347   2.700   5.963   6.353
   11ARG     HA 3348   2.596   5.978   6.385
   11ARG     CB 3349   2.743   6.090   6.272
   11ARG    HB2 3350   2.850   6.099   6.254
   11ARG    HB3 3351   2.698   6.105   6.174
   11ARG     CG 3352   2.715   6.218   6.351
   11ARG    HG2 3353   2.608   6.233   6.360
   11ARG    HG3 3354   2.758   6.219   6.451
   11ARG     CD 3355   2.777   6.335   6.277
   11ARG    HD2 3356   2.771   6.422   6.343
   11ARG    HD3 3357   2.885   6.323   6.265
   11ARG     NE 3358   2.710   6.359   6.144
   11ARG     HE 3359   2.753   6.297   6.076
   11ARG     CZ 3360   2.584   6.400   6.129
   11ARG    NH1 3361   2.525   6.461   6.229
   11ARG   HH11 3362   2.583   6.473   6.311
   11ARG   HH12 3363   2.434   6.500   6.213
   11ARG    NH2 3364   2.521   6.387   6.020
   11ARG   HH21 3365   2.564   6.350   5.937
   11ARG   HH22 3366   2.421   6.399   6.028
   11ARG      C 3367   2.703   5.851   6.251
   11ARG      O 3368   2.791   5.769   6.245
   12LYS      N 3369   2.594   5.847   6.174
   12LYS      H 3370   2.538   5.931   6.175
   12LYS     CA 3371   2.570   5.755   6.061
   12LYS     HA 3372   2.666   5.716   6.027
   12LYS     CB 3373   2.482   5.635   6.107
   12LYS    HB2 3374   2.388   5.683   6.130
   12LYS    HB3 3375   2.467   5.571   6.020
   12LYS     CG 3376   2.530   5.549   6.226
   12LYS    HG2 3377   2.634   5.523   6.207
   12LYS    HG3 3378   2.545   5.608   6.316
   12LYS     CD 3379   2.443   5.426   6.261
   12LYS    HD2 3380   2.435   5.384   6.161
   12LYS    HD3 3381   2.493   5.359   6.331
   12LYS     CE 3382   2.299   5.460   6.296
   12LYS    HE2 3383   2.287   5.517   6.387
   12LYS    HE3 3384   2.252   5.525   6.223
   12LYS     NZ 3385   2.224   5.333   6.286
   12LYS    HZ1 3386   2.239   5.277   6.370
   12LYS    HZ2 3387   2.125   5.354   6.291
   12LYS    HZ3 3388   2.237   5.287   6.198
   12LYS      C 3389   2.507   5.821   5.934
   12LYS      O 3390   2.441   5.923   5.947
   13NHE      N 3391   2.514   5.756   5.822
   13NHE    HN1 3392   2.574   5.673   5.824
   13NHE    HN2 3393   2.468   5.794   5.742
    1ILE      N 3394   3.939   5.405   2.500
    1ILE     H1 3395   3.904   5.320   2.543
    1ILE     H2 3396   3.987   5.387   2.414
    1ILE     H3 3397   3.866   5.469   2.472
    1ILE     CA 3398   4.034   5.469   2.595
    1ILE     HA 3399   4.082   5.552   2.543
    1ILE     CB 3400   3.970   5.535   2.717
    1ILE     HB 3401   4.055   5.574   2.772
    1ILE    CG2 3402   3.891   5.653   2.661
    1ILE   HG21 3403   3.795   5.636   2.612
    1ILE   HG22 3404   3.857   5.719   2.741
    1ILE   HG23 3405   3.957   5.720   2.605
    1ILE    CG1 3406   3.881   5.438   2.795
    1ILE   HG12 3407   3.928   5.341   2.803
    1ILE   HG13 3408   3.779   5.432   2.756
    1ILE    CD1 3409   3.886   5.491   2.938
    1ILE   HD11 3410   3.837   5.424   3.010
    1ILE   HD12 3411   3.991   5.503   2.965
    1ILE   HD13 3412   3.834   5.586   2.949
    1ILE      C 3413   4.148   5.374   2.626
    1ILE      O 3414   4.120   5.251   2.633
    2LEU      N 3415   4.266   5.431   2.653
    2LEU      H 3416   4.265   5.531   2.657
    2LEU     CA 3417   4.385   5.353   2.690
    2LEU     HA 3418   4.388   5.265   2.625
    2LEU     CB 3419   4.513   5.439   2.670
    2LEU    HB2 3420   4.508   5.527   2.733
    2LEU    HB3 3421   4.605   5.384   2.692
    2LEU     CG 3422   4.530   5.502   2.533
    2LEU     HG 3423   4.453   5.568   2.494
    2LEU    CD1 3424   4.663   5.575   2.526
    2LEU   HD11 3425   4.749   5.521   2.565
    2LEU   HD12 3426   4.675   5.601   2.420
    2LEU   HD13 3427   4.664   5.675   2.570
    2LEU    CD2 3428   4.530   5.384   2.434
    2LEU   HD21 3429   4.426   5.351   2.424
    2LEU   HD22 3430   4.569   5.423   2.340
    2LEU   HD23 3431   4.598   5.305   2.465
    2LEU      C 3432   4.371   5.305   2.838
    2LEU      O 3433   4.312   5.372   2.920
    3ARG      N 3434   4.421   5.185   2.876
    3ARG      H 3435   4.458   5.126   2.803
    3ARG     CA 3436   4.422   5.134   3.014
    3ARG     HA 3437   4.336   5.184   3.057
    3ARG     CB 3438   4.390   4.986   3.003
    3ARG    HB2 3439   4.474   4.936   2.955
    3ARG    HB3 3440   4.375   4.946   3.104
    3ARG     CG 3441   4.259   4.945   2.933
    3ARG    HG2 3442   4.268   4.963   2.826
    3ARG    HG3 3443   4.253   4.836   2.934
    3ARG     CD 3444   4.128   5.005   2.988
    3ARG    HD2 3445   4.106   4.967   3.088
    3ARG    HD3 3446   4.127   5.112   3.010
    3ARG     NE 3447   4.003   4.968   2.908
    3ARG     HE 3448   4.011   4.890   2.846
    3ARG     CZ 3449   3.885   5.027   2.921
    3ARG    NH1 3450   3.868   5.134   2.992
    3ARG   HH11 3451   3.935   5.151   3.065
    3ARG   HH12 3452   3.774   5.171   2.988
    3ARG    NH2 3453   3.785   4.970   2.861
    3ARG   HH21 3454   3.800   4.894   2.796
    3ARG   HH22 3455   3.708   5.033   2.845
    3ARG      C 3456   4.536   5.185   3.104
    3ARG      O 3457   4.539   5.147   3.223
    4TRP      N 3458   4.614   5.282   3.055
    4TRP      H 3459   4.582   5.324   2.969
    4TRP     CA 3460   4.706   5.361   3.142
    4TRP     HA 3461   4.692   5.328   3.245
    4TRP     CB 3462   4.850   5.324   3.098
    4TRP    HB2 3463   4.922   5.398   3.133
    4TRP    HB3 3464   4.880   5.233   3.151
    4TRP     CG 3465   4.873   5.317   2.938
    4TRP    CD1 3466   4.879   5.433   2.864
    4TRP    HD1 3467   4.848   5.532   2.895
    4TRP    NE1 3468   4.915   5.400   2.737
    4TRP    HE1 3469   4.946   5.460   2.662
    4TRP    CE2 3470   4.927   5.261   2.717
    4TRP    CZ2 3471   4.949   5.173   2.612
    4TRP    HZ2 3472   4.964   5.209   2.512
    4TRP    CH2 3473   4.955   5.034   2.627
    4TRP    HH2 3474   4.980   4.967   2.545
    4TRP    CZ3 3475   4.927   4.978   2.755
    4TRP    HZ3 3476   4.917   4.872   2.777
    4TRP    CE3 3477   4.899   5.067   2.859
    4TRP    HE3 3478   4.889   5.033   2.961
    4TRP    CD2 3479   4.901   5.208   2.847
    4TRP      C 3480   4.669   5.515   3.142
    4TRP      O 3481   4.600   5.558   3.051
    5PRO      N 3482   4.711   5.595   3.246
    5PRO     CD 3483   4.782   5.559   3.363
    5PRO    HD2 3484   4.869   5.495   3.343
    5PRO    HD3 3485   4.717   5.504   3.431
    5PRO     CG 3486   4.825   5.688   3.431
    5PRO    HG2 3487   4.918   5.722   3.385
    5PRO    HG3 3488   4.833   5.682   3.540
    5PRO     CB 3489   4.718   5.796   3.378
    5PRO    HB2 3490   4.759   5.897   3.374
    5PRO    HB3 3491   4.628   5.785   3.440
    5PRO     CA 3492   4.682   5.741   3.235
    5PRO     HA 3493   4.575   5.747   3.222
    5PRO      C 3494   4.756   5.806   3.118
    5PRO      O 3495   4.878   5.796   3.103
    6TRP      N 3496   4.674   5.877   3.044
    6TRP      H 3497   4.577   5.884   3.071
    6TRP     CA 3498   4.711   5.946   2.916
    6TRP     HA 3499   4.802   5.896   2.883
    6TRP     CB 3500   4.620   5.915   2.797
    6TRP    HB2 3501   4.624   5.808   2.773
    6TRP    HB3 3502   4.518   5.945   2.822
    6TRP     CG 3503   4.663   5.998   2.680
    6TRP    CD1 3504   4.585   6.096   2.625
    6TRP    HD1 3505   4.490   6.131   2.664
    6TRP    NE1 3506   4.648   6.156   2.527
    6TRP    HE1 3507   4.609   6.221   2.461
    6TRP    CE2 3508   4.768   6.091   2.504
    6TRP    CZ2 3509   4.873   6.117   2.408
    6TRP    HZ2 3510   4.871   6.185   2.323
    6TRP    CH2 3511   4.991   6.041   2.411
    6TRP    HH2 3512   5.071   6.056   2.340
    6TRP    CZ3 3513   5.002   5.940   2.504
    6TRP    HZ3 3514   5.083   5.868   2.501
    6TRP    CE3 3515   4.908   5.924   2.602
    6TRP    HE3 3516   4.916   5.832   2.657
    6TRP    CD2 3517   4.786   5.995   2.607
    6TRP      C 3518   4.729   6.098   2.930
    6TRP      O 3519   4.637   6.168   2.968
    7TRP      N 3520   4.849   6.152   2.902
    7TRP      H 3521   4.925   6.086   2.890
    7TRP     CA 3522   4.859   6.294   2.877
    7TRP     HA 3523   4.763   6.346   2.880
    7TRP     CB 3524   4.934   6.352   2.997
    7TRP    HB2 3525   4.893   6.321   3.093
    7TRP    HB3 3526   5.038   6.318   2.994
    7TRP     CG 3527   4.940   6.497   2.999
    7TRP    CD1 3528   5.045   6.571   3.024
    7TRP    HD1 3529   5.144   6.529   3.041
    7TRP    NE1 3530   5.009   6.703   3.018
    7TRP    HE1 3531   5.072   6.781   3.028
    7TRP    CE2 3532   4.871   6.724   3.006
    7TRP    CZ2 3533   4.790   6.841   3.009
    7TRP    HZ2 3534   4.835   6.939   3.020
    7TRP    CH2 3535   4.649   6.822   3.010
    7TRP    HH2 3536   4.587   6.907   3.033
    7TRP    CZ3 3537   4.599   6.689   3.023
    7TRP    HZ3 3538   4.494   6.675   3.046
    7TRP    CE3 3539   4.683   6.577   3.009
    7TRP    HE3 3540   4.641   6.478   3.023
    7TRP    CD2 3541   4.823   6.590   3.003
    7TRP      C 3542   4.925   6.316   2.742
    7TRP      O 3543   5.028   6.260   2.716
    8PRO      N 3544   4.874   6.411   2.660
    8PRO     CD 3545   4.737   6.466   2.656
    8PRO    HD2 3546   4.738   6.559   2.712
    8PRO    HD3 3547   4.669   6.390   2.697
    8PRO     CG 3548   4.713   6.507   2.511
    8PRO    HG2 3549   4.631   6.579   2.520
    8PRO    HG3 3550   4.687   6.421   2.449
    8PRO     CB 3551   4.850   6.557   2.468
    8PRO    HB2 3552   4.869   6.656   2.506
    8PRO    HB3 3553   4.853   6.548   2.360
    8PRO     CA 3554   4.939   6.455   2.537
    8PRO     HA 3555   4.952   6.366   2.475
    8PRO      C 3556   5.081   6.519   2.552
    8PRO      O 3557   5.144   6.560   2.454
    9TRP      N 3558   5.145   6.509   2.669
    9TRP      H 3559   5.096   6.467   2.746
    9TRP     CA 3560   5.284   6.547   2.700
    9TRP     HA 3561   5.352   6.552   2.615
    9TRP     CB 3562   5.276   6.694   2.747
    9TRP    HB2 3563   5.233   6.761   2.672
    9TRP    HB3 3564   5.214   6.697   2.837
    9TRP     CG 3565   5.404   6.761   2.783
    9TRP    CD1 3566   5.441   6.807   2.907
    9TRP    HD1 3567   5.376   6.810   2.993
    9TRP    NE1 3568   5.563   6.875   2.897
    9TRP    HE1 3569   5.599   6.939   2.967
    9TRP    CE2 3570   5.619   6.858   2.770
    9TRP    CZ2 3571   5.744   6.890   2.716
    9TRP    HZ2 3572   5.818   6.944   2.772
    9TRP    CH2 3573   5.771   6.849   2.588
    9TRP    HH2 3574   5.867   6.878   2.547
    9TRP    CZ3 3575   5.673   6.794   2.510
    9TRP    HZ3 3576   5.704   6.755   2.415
    9TRP    CE3 3577   5.547   6.763   2.559
    9TRP    HE3 3578   5.479   6.713   2.493
    9TRP    CD2 3579   5.519   6.791   2.695
    9TRP      C 3580   5.348   6.450   2.798
    9TRP      O 3581   5.278   6.393   2.873
   10ARG      N 3582   5.480   6.456   2.806
   10ARG      H 3583   5.518   6.544   2.774
   10ARG     CA 3584   5.563   6.386   2.906
   10ARG     HA 3585   5.534   6.281   2.907
   10ARG     CB 3586   5.717   6.390   2.880
   10ARG    HB2 3587   5.763   6.481   2.920
   10ARG    HB3 3588   5.758   6.301   2.927
   10ARG     CG 3589   5.755   6.393   2.733
   10ARG    HG2 3590   5.710   6.313   2.673
   10ARG    HG3 3591   5.721   6.487   2.693
   10ARG     CD 3592   5.904   6.386   2.709
   10ARG    HD2 3593   5.948   6.455   2.779
   10ARG    HD3 3594   5.945   6.294   2.752
   10ARG     NE 3595   5.930   6.408   2.560
   10ARG     HE 3596   5.881   6.352   2.493
   10ARG     CZ 3597   6.000   6.501   2.508
   10ARG    NH1 3598   6.056   6.598   2.578
   10ARG   HH11 3599   6.046   6.600   2.679
   10ARG   HH12 3600   6.121   6.656   2.529
   10ARG    NH2 3601   6.022   6.507   2.380
   10ARG   HH21 3602   5.937   6.488   2.329
   10ARG   HH22 3603   6.075   6.588   2.357
   10ARG      C 3604   5.530   6.426   3.051
   10ARG      O 3605   5.480   6.533   3.080
   11ARG      N 3606   5.554   6.333   3.143
   11ARG      H 3607   5.613   6.257   3.109
   11ARG     CA 3608   5.530   6.339   3.289
   11ARG     HA 3609   5.553   6.435   3.335
   11ARG     CB 3610   5.383   6.301   3.331
   11ARG    HB2 3611   5.338   6.219   3.274
   11ARG    HB3 3612   5.366   6.274   3.435
   11ARG     CG 3613   5.286   6.415   3.301
   11ARG    HG2 3614   5.306   6.499   3.366
   11ARG    HG3 3615   5.289   6.451   3.198
   11ARG     CD 3616   5.144   6.365   3.324
   11ARG    HD2 3617   5.077   6.442   3.286
   11ARG    HD3 3618   5.121   6.280   3.260
   11ARG     NE 3619   5.120   6.334   3.469
   11ARG     HE 3620   5.152   6.240   3.487
   11ARG     CZ 3621   5.117   6.425   3.566
   11ARG    NH1 3622   5.096   6.550   3.536
   11ARG   HH11 3623   5.081   6.568   3.438
   11ARG   HH12 3624   5.084   6.616   3.611
   11ARG    NH2 3625   5.129   6.393   3.688
   11ARG   HH21 3626   5.136   6.298   3.720
   11ARG   HH22 3627   5.150   6.471   3.750
   11ARG      C 3628   5.616   6.233   3.354
   11ARG      O 3629   5.664   6.139   3.294
   12LYS      N 3630   5.639   6.256   3.484
   12LYS      H 3631   5.578   6.324   3.527
   12LYS     CA 3632   5.713   6.168   3.576
   12LYS     HA 3633   5.713   6.067   3.535
   12LYS     CB 3634   5.860   6.216   3.591
   12LYS    HB2 3635   5.848   6.312   3.640
   12LYS    HB3 3636   5.909   6.149   3.661
   12LYS     CG 3637   5.947   6.230   3.463
   12LYS    HG2 3638   5.935   6.138   3.407
   12LYS    HG3 3639   5.903   6.299   3.391
   12LYS     CD 3640   6.094   6.270   3.485
   12LYS    HD2 3641   6.119   6.197   3.562
   12LYS    HD3 3642   6.154   6.257   3.395
   12LYS     CE 3643   6.113   6.402   3.558
   12LYS    HE2 3644   6.080   6.489   3.502
   12LYS    HE3 3645   6.054   6.409   3.648
   12LYS     NZ 3646   6.254   6.404   3.605
   12LYS    HZ1 3647   6.315   6.427   3.528
   12LYS    HZ2 3648   6.265   6.482   3.668
   12LYS    HZ3 3649   6.277   6.322   3.658
   12LYS      C 3650   5.648   6.152   3.718
   12LYS      O 3651   5.576   6.241   3.760
   13NHE      N 3652   5.688   6.052   3.792
   13NHE    HN1 3653   5.746   5.984   3.744
   13NHE    HN2 3654   5.652   6.046   3.885
    1ILE      N 3655   9.453   4.641   5.459
    1ILE     H1 3656   9.543   4.676   5.488
    1ILE     H2 3657   9.383   4.713   5.457
    1ILE     H3 3658   9.453   4.607   5.364
    1ILE     CA 3659   9.411   4.535   5.555
    1ILE     HA 3660   9.308   4.508   5.530
    1ILE     CB 3661   9.487   4.403   5.544
    1ILE     HB 3662   9.441   4.341   5.621
    1ILE    CG2 3663   9.448   4.345   5.408
    1ILE   HG21 3664   9.492   4.386   5.317
    1ILE   HG22 3665   9.481   4.242   5.398
    1ILE   HG23 3666   9.339   4.334   5.402
    1ILE    CG1 3667   9.638   4.422   5.557
    1ILE   HG12 3668   9.661   4.493   5.635
    1ILE   HG13 3669   9.686   4.447   5.461
    1ILE    CD1 3670   9.688   4.289   5.614
    1ILE   HD11 3671   9.794   4.292   5.641
    1ILE   HD12 3672   9.628   4.268   5.702
    1ILE   HD13 3673   9.679   4.208   5.543
    1ILE      C 3674   9.402   4.592   5.694
    1ILE      O 3675   9.486   4.680   5.726
    2LEU      N 3676   9.310   4.537   5.775
    2LEU      H 3677   9.262   4.458   5.736
    2LEU     CA 3678   9.292   4.577   5.915
    2LEU     HA 3679   9.300   4.687   5.918
    2LEU     CB 3680   9.153   4.531   5.967
    2LEU    HB2 3681   9.147   4.422   5.960
    2LEU    HB3 3682   9.133   4.562   6.069
    2LEU     CG 3683   9.034   4.572   5.882
    2LEU     HG 3684   9.029   4.544   5.778
    2LEU    CD1 3685   8.905   4.527   5.949
    2LEU   HD11 3686   8.898   4.547   6.056
    2LEU   HD12 3687   8.825   4.576   5.892
    2LEU   HD13 3688   8.878   4.422   5.933
    2LEU    CD2 3689   9.039   4.726   5.877
    2LEU   HD21 3690   9.118   4.753   5.807
    2LEU   HD22 3691   8.941   4.759   5.842
    2LEU   HD23 3692   9.052   4.770   5.977
    2LEU      C 3693   9.409   4.518   6.001
    2LEU      O 3694   9.458   4.411   5.972
    3ARG      N 3695   9.457   4.587   6.106
    3ARG      H 3696   9.422   4.681   6.120
    3ARG     CA 3697   9.559   4.537   6.199
    3ARG     HA 3698   9.615   4.467   6.137
    3ARG     CB 3699   9.650   4.655   6.229
    3ARG    HB2 3700   9.594   4.728   6.287
    3ARG    HB3 3701   9.736   4.620   6.286
    3ARG     CG 3702   9.718   4.726   6.110
    3ARG    HG2 3703   9.644   4.781   6.053
    3ARG    HG3 3704   9.779   4.808   6.150
    3ARG     CD 3705   9.804   4.638   6.016
    3ARG    HD2 3706   9.894   4.602   6.067
    3ARG    HD3 3707   9.762   4.543   5.984
    3ARG     NE 3708   9.861   4.712   5.895
    3ARG     HE 3709   9.861   4.813   5.900
    3ARG     CZ 3710   9.915   4.654   5.790
    3ARG    NH1 3711   9.911   4.526   5.771
    3ARG   HH11 3712   9.899   4.469   5.853
    3ARG   HH12 3713   9.952   4.496   5.683
    3ARG    NH2 3714   9.976   4.732   5.705
    3ARG   HH21 3715   9.969   4.832   5.713
    3ARG   HH22 3716   9.986   4.691   5.614
    3ARG      C 3717   9.509   4.445   6.312
    3ARG      O 3718   9.592   4.397   6.392
    4TRP      N 3719   9.381   4.407   6.307
    4TRP      H 3720   9.333   4.428   6.221
    4TRP     CA 3721   9.328   4.294   6.390
    4TRP     HA 3722   9.412   4.252   6.446
    4TRP     CB 3723   9.228   4.357   6.490
    4TRP    HB2 3724   9.163   4.282   6.533
    4TRP    HB3 3725   9.284   4.394   6.577
    4TRP     CG 3726   9.128   4.467   6.426
    4TRP    CD1 3727   9.024   4.427   6.346
    4TRP    HD1 3728   9.011   4.330   6.299
    4TRP    NE1 3729   8.946   4.536   6.320
    4TRP    HE1 3730   8.854   4.539   6.279
    4TRP    CE2 3731   8.999   4.655   6.373
    4TRP    CZ2 3732   8.971   4.791   6.371
    4TRP    HZ2 3733   8.887   4.828   6.315
    4TRP    CH2 3734   9.046   4.888   6.438
    4TRP    HH2 3735   9.018   4.992   6.441
    4TRP    CZ3 3736   9.164   4.846   6.506
    4TRP    HZ3 3737   9.237   4.912   6.552
    4TRP    CE3 3738   9.195   4.709   6.504
    4TRP    HE3 3739   9.275   4.669   6.564
    4TRP    CD2 3740   9.114   4.610   6.443
    4TRP      C 3741   9.275   4.175   6.300
    4TRP      O 3742   9.247   4.198   6.184
    5PRO      N 3743   9.264   4.049   6.355
    5PRO     CD 3744   9.301   4.004   6.484
    5PRO    HD2 3745   9.265   4.069   6.564
    5PRO    HD3 3746   9.409   3.999   6.493
    5PRO     CG 3747   9.244   3.863   6.501
    5PRO    HG2 3748   9.140   3.872   6.533
    5PRO    HG3 3749   9.303   3.798   6.566
    5PRO     CB 3750   9.230   3.810   6.349
    5PRO    HB2 3751   9.149   3.738   6.337
    5PRO    HB3 3752   9.329   3.775   6.318
    5PRO     CA 3753   9.202   3.943   6.269
    5PRO     HA 3754   9.263   3.942   6.179
    5PRO      C 3755   9.056   3.973   6.237
    5PRO      O 3756   8.972   3.996   6.325
    6TRP      N 3757   9.032   3.963   6.108
    6TRP      H 3758   9.107   3.936   6.047
    6TRP     CA 3759   8.901   3.995   6.042
    6TRP     HA 3760   8.848   4.058   6.113
    6TRP     CB 3761   8.911   4.091   5.923
    6TRP    HB2 3762   8.950   4.188   5.957
    6TRP    HB3 3763   8.976   4.048   5.848
    6TRP     CG 3764   8.775   4.105   5.861
    6TRP    CD1 3765   8.746   4.063   5.735
    6TRP    HD1 3766   8.812   4.006   5.670
    6TRP    NE1 3767   8.619   4.083   5.707
    6TRP    HE1 3768   8.576   4.074   5.617
    6TRP    CE2 3769   8.561   4.153   5.811
    6TRP    CZ2 3770   8.425   4.200   5.830
    6TRP    HZ2 3771   8.345   4.203   5.757
    6TRP    CH2 3772   8.388   4.262   5.950
    6TRP    HH2 3773   8.289   4.299   5.968
    6TRP    CZ3 3774   8.484   4.278   6.048
    6TRP    HZ3 3775   8.466   4.339   6.136
    6TRP    CE3 3776   8.609   4.223   6.034
    6TRP    HE3 3777   8.681   4.257   6.107
    6TRP    CD2 3778   8.655   4.160   5.916
    6TRP      C 3779   8.820   3.870   6.002
    6TRP      O 3780   8.865   3.788   5.925
    7TRP      N 3781   8.698   3.853   6.057
    7TRP      H 3782   8.675   3.915   6.134
    7TRP     CA 3783   8.605   3.762   5.994
    7TRP     HA 3784   8.643   3.715   5.903
    7TRP     CB 3785   8.593   3.643   6.090
    7TRP    HB2 3786   8.689   3.602   6.122
    7TRP    HB3 3787   8.540   3.675   6.180
    7TRP     CG 3788   8.516   3.532   6.038
    7TRP    CD1 3789   8.423   3.464   6.100
    7TRP    HD1 3790   8.389   3.489   6.200
    7TRP    NE1 3791   8.376   3.365   6.017
    7TRP    HE1 3792   8.301   3.302   6.039
    7TRP    CE2 3793   8.450   3.351   5.899
    7TRP    CZ2 3794   8.445   3.256   5.792
    7TRP    HZ2 3795   8.371   3.177   5.793
    7TRP    CH2 3796   8.548   3.263   5.695
    7TRP    HH2 3797   8.558   3.181   5.626
    7TRP    CZ3 3798   8.656   3.354   5.717
    7TRP    HZ3 3799   8.745   3.345   5.656
    7TRP    CE3 3800   8.650   3.452   5.817
    7TRP    HE3 3801   8.735   3.517   5.833
    7TRP    CD2 3802   8.547   3.453   5.915
    7TRP      C 3803   8.476   3.835   5.964
    7TRP      O 3804   8.422   3.899   6.050
    8PRO      N 3805   8.415   3.813   5.845
    8PRO     CD 3806   8.475   3.767   5.718
    8PRO    HD2 3807   8.457   3.660   5.711
    8PRO    HD3 3808   8.581   3.795   5.718
    8PRO     CG 3809   8.389   3.829   5.607
    8PRO    HG2 3810   8.412   3.764   5.522
    8PRO    HG3 3811   8.415   3.933   5.590
    8PRO     CB 3812   8.249   3.825   5.668
    8PRO    HB2 3813   8.207   3.725   5.663
    8PRO    HB3 3814   8.192   3.902   5.617
    8PRO     CA 3815   8.282   3.862   5.812
    8PRO     HA 3816   8.284   3.970   5.825
    8PRO      C 3817   8.164   3.810   5.902
    8PRO      O 3818   8.047   3.844   5.881
    9TRP      N 3819   8.192   3.745   6.014
    9TRP      H 3820   8.288   3.725   6.035
    9TRP     CA 3821   8.099   3.702   6.120
    9TRP     HA 3822   8.004   3.756   6.125
    9TRP     CB 3823   8.055   3.559   6.080
    9TRP    HB2 3824   8.008   3.554   5.982
    9TRP    HB3 3825   8.143   3.496   6.080
    9TRP     CG 3826   7.957   3.490   6.169
    9TRP    CD1 3827   7.978   3.378   6.243
    9TRP    HD1 3828   8.066   3.317   6.238
    9TRP    NE1 3829   7.858   3.337   6.303
    9TRP    HE1 3830   7.840   3.245   6.341
    9TRP    CE2 3831   7.759   3.435   6.286
    9TRP    CZ2 3832   7.630   3.451   6.338
    9TRP    HZ2 3833   7.585   3.377   6.402
    9TRP    CH2 3834   7.563   3.566   6.307
    9TRP    HH2 3835   7.462   3.575   6.347
    9TRP    CZ3 3836   7.612   3.654   6.215
    9TRP    HZ3 3837   7.558   3.747   6.204
    9TRP    CE3 3838   7.737   3.641   6.159
    9TRP    HE3 3839   7.771   3.718   6.092
    9TRP    CD2 3840   7.817   3.529   6.197
    9TRP      C 3841   8.161   3.716   6.258
    9TRP      O 3842   8.277   3.707   6.268
   10ARG      N 3843   8.075   3.712   6.360
   10ARG      H 3844   7.988   3.667   6.336
   10ARG     CA 3845   8.112   3.705   6.503
   10ARG     HA 3846   8.185   3.782   6.523
   10ARG     CB 3847   7.994   3.725   6.603
   10ARG    HB2 3848   7.940   3.632   6.623
   10ARG    HB3 3849   8.039   3.764   6.695
   10ARG     CG 3850   7.886   3.820   6.554
   10ARG    HG2 3851   7.923   3.917   6.520
   10ARG    HG3 3852   7.838   3.772   6.470
   10ARG     CD 3853   7.778   3.848   6.656
   10ARG    HD2 3854   7.753   3.751   6.698
   10ARG    HD3 3855   7.822   3.891   6.746
   10ARG     NE 3856   7.668   3.928   6.589
   10ARG     HE 3857   7.691   4.012   6.540
   10ARG     CZ 3858   7.546   3.894   6.578
   10ARG    NH1 3859   7.498   3.777   6.618
   10ARG   HH11 3860   7.559   3.710   6.662
   10ARG   HH12 3861   7.398   3.768   6.618
   10ARG    NH2 3862   7.457   3.972   6.524
   10ARG   HH21 3863   7.493   4.017   6.441
   10ARG   HH22 3864   7.367   3.928   6.520
   10ARG      C 3865   8.194   3.579   6.537
   10ARG      O 3866   8.188   3.476   6.473
   11ARG      N 3867   8.277   3.591   6.642
   11ARG      H 3868   8.258   3.673   6.698
   11ARG     CA 3869   8.371   3.491   6.697
   11ARG     HA 3870   8.332   3.389   6.700
   11ARG     CB 3871   8.509   3.486   6.623
   11ARG    HB2 3872   8.549   3.583   6.593
   11ARG    HB3 3873   8.592   3.439   6.676
   11ARG     CG 3874   8.498   3.415   6.489
   11ARG    HG2 3875   8.478   3.309   6.505
   11ARG    HG3 3876   8.421   3.454   6.423
   11ARG     CD 3877   8.630   3.431   6.414
   11ARG    HD2 3878   8.613   3.394   6.313
   11ARG    HD3 3879   8.653   3.536   6.397
   11ARG     NE 3880   8.742   3.360   6.484
   11ARG     HE 3881   8.779   3.422   6.556
   11ARG     CZ 3882   8.752   3.228   6.497
   11ARG    NH1 3883   8.685   3.151   6.415
   11ARG   HH11 3884   8.631   3.200   6.345
   11ARG   HH12 3885   8.701   3.052   6.420
   11ARG    NH2 3886   8.828   3.174   6.582
   11ARG   HH21 3887   8.889   3.226   6.642
   11ARG   HH22 3888   8.809   3.076   6.600
   11ARG      C 3889   8.405   3.534   6.838
   11ARG      O 3890   8.387   3.646   6.880
   12LYS      N 3891   8.449   3.433   6.914
   12LYS      H 3892   8.479   3.351   6.863
   12LYS     CA 3893   8.497   3.445   7.053
   12LYS     HA 3894   8.525   3.548   7.072
   12LYS     CB 3895   8.384   3.405   7.152
   12LYS    HB2 3896   8.370   3.299   7.131
   12LYS    HB3 3897   8.425   3.413   7.253
   12LYS     CG 3898   8.249   3.480   7.145
   12LYS    HG2 3899   8.273   3.586   7.144
   12LYS    HG3 3900   8.203   3.473   7.047
   12LYS     CD 3901   8.144   3.443   7.252
   12LYS    HD2 3902   8.208   3.450   7.340
   12LYS    HD3 3903   8.061   3.513   7.255
   12LYS     CE 3904   8.104   3.295   7.252
   12LYS    HE2 3905   8.051   3.264   7.162
   12LYS    HE3 3906   8.190   3.229   7.251
   12LYS     NZ 3907   8.038   3.271   7.381
   12LYS    HZ1 3908   7.942   3.305   7.378
   12LYS    HZ2 3909   8.025   3.171   7.392
   12LYS    HZ3 3910   8.094   3.299   7.460
   12LYS      C 3911   8.627   3.362   7.085
   12LYS      O 3912   8.652   3.264   7.017
   13NHE      N 3913   8.692   3.392   7.193
   13NHE    HN1 3914   8.662   3.477   7.240
   13NHE    HN2 3915   8.771   3.335   7.218
    1ILE      N 3916   7.434   9.474   5.940
    1ILE     H1 3917   7.397   9.380   5.944
    1ILE     H2 3918   7.524   9.480   5.984
    1ILE     H3 3919   7.453   9.506   5.846
    1ILE     CA 3920   7.339   9.564   6.010
    1ILE     HA 3921   7.387   9.662   6.019
    1ILE     CB 3922   7.209   9.593   5.936
    1ILE     HB 3923   7.156   9.660   6.004
    1ILE    CG2 3924   7.251   9.674   5.813
    1ILE   HG21 3925   7.296   9.624   5.728
    1ILE   HG22 3926   7.164   9.718   5.763
    1ILE   HG23 3927   7.304   9.764   5.844
    1ILE    CG1 3928   7.135   9.466   5.898
    1ILE   HG12 3929   7.137   9.394   5.980
    1ILE   HG13 3930   7.169   9.423   5.803
    1ILE    CD1 3931   6.988   9.509   5.893
    1ILE   HD11 3932   6.920   9.424   5.880
    1ILE   HD12 3933   6.966   9.558   5.988
    1ILE   HD13 3934   6.967   9.575   5.811
    1ILE      C 3935   7.322   9.520   6.154
    1ILE      O 3936   7.324   9.396   6.176
    2LEU      N 3937   7.297   9.617   6.243
    2LEU      H 3938   7.285   9.708   6.204
    2LEU     CA 3939   7.273   9.590   6.386
    2LEU     HA 3940   7.345   9.513   6.417
    2LEU     CB 3941   7.293   9.720   6.469
    2LEU    HB2 3942   7.223   9.795   6.435
    2LEU    HB3 3943   7.280   9.704   6.576
    2LEU     CG 3944   7.425   9.792   6.449
    2LEU     HG 3945   7.454   9.825   6.350
    2LEU    CD1 3946   7.433   9.911   6.542
    2LEU   HD11 3947   7.404   9.893   6.646
    2LEU   HD12 3948   7.537   9.946   6.534
    2LEU   HD13 3949   7.381  10.001   6.508
    2LEU    CD2 3950   7.533   9.689   6.486
    2LEU   HD21 3951   7.541   9.618   6.402
    2LEU   HD22 3952   7.626   9.745   6.500
    2LEU   HD23 3953   7.513   9.641   6.582
    2LEU      C 3954   7.129   9.532   6.403
    2LEU      O 3955   7.039   9.566   6.330
    3ARG      N 3956   7.104   9.440   6.499
    3ARG      H 3957   7.184   9.404   6.550
    3ARG     CA 3958   6.971   9.386   6.530
    3ARG     HA 3959   6.920   9.395   6.435
    3ARG     CB 3960   6.992   9.237   6.557
    3ARG    HB2 3961   7.049   9.226   6.649
    3ARG    HB3 3962   6.894   9.189   6.567
    3ARG     CG 3963   7.058   9.152   6.447
    3ARG    HG2 3964   7.163   9.178   6.439
    3ARG    HG3 3965   7.065   9.049   6.483
    3ARG     CD 3966   6.991   9.154   6.308
    3ARG    HD2 3967   6.894   9.104   6.310
    3ARG    HD3 3968   6.961   9.250   6.267
    3ARG     NE 3969   7.067   9.075   6.200
    3ARG     HE 3970   7.136   9.009   6.233
    3ARG     CZ 3971   7.043   9.082   6.070
    3ARG    NH1 3972   6.963   9.170   6.019
    3ARG   HH11 3973   6.893   9.208   6.080
    3ARG   HH12 3974   6.959   9.168   5.918
    3ARG    NH2 3975   7.103   8.995   5.995
    3ARG   HH21 3976   7.174   8.934   6.033
    3ARG   HH22 3977   7.109   9.023   5.899
    3ARG      C 3978   6.883   9.471   6.622
    3ARG      O 3979   6.768   9.431   6.650
    4TRP      N 3980   6.928   9.594   6.654
    4TRP      H 3981   7.008   9.625   6.601
    4TRP     CA 3982   6.840   9.697   6.715
    4TRP     HA 3983   6.739   9.656   6.722
    4TRP     CB 3984   6.894   9.722   6.857
    4TRP    HB2 3985   6.858   9.816   6.897
    4TRP    HB3 3986   6.851   9.647   6.924
    4TRP     CG 3987   7.055   9.733   6.868
    4TRP    CD1 3988   7.120   9.846   6.823
    4TRP    HD1 3989   7.079   9.923   6.759
    4TRP    NE1 3990   7.251   9.837   6.859
    4TRP    HE1 3991   7.322   9.909   6.857
    4TRP    CE2 3992   7.283   9.715   6.921
    4TRP    CZ2 3993   7.396   9.648   6.967
    4TRP    HZ2 3994   7.493   9.693   6.959
    4TRP    CH2 3995   7.393   9.522   7.027
    4TRP    HH2 3996   7.481   9.475   7.069
    4TRP    CZ3 3997   7.268   9.453   7.033
    4TRP    HZ3 3998   7.254   9.350   7.066
    4TRP    CE3 3999   7.156   9.518   6.982
    4TRP    HE3 4000   7.056   9.478   6.994
    4TRP    CD2 4001   7.157   9.649   6.929
    4TRP      C 4002   6.825   9.825   6.620
    4TRP      O 4003   6.909   9.842   6.534
    5PRO      N 4004   6.717   9.909   6.637
    5PRO     CD 4005   6.608   9.897   6.726
    5PRO    HD2 4006   6.637   9.873   6.828
    5PRO    HD3 4007   6.541   9.817   6.693
    5PRO     CG 4008   6.531  10.029   6.721
    5PRO    HG2 4009   6.580  10.099   6.790
    5PRO    HG3 4010   6.424  10.020   6.739
    5PRO     CB 4011   6.569  10.089   6.577
    5PRO    HB2 4012   6.568  10.198   6.575
    5PRO    HB3 4013   6.505  10.040   6.504
    5PRO     CA 4014   6.715  10.032   6.554
    5PRO     HA 4015   6.721   9.996   6.451
    5PRO      C 4016   6.829  10.127   6.586
    5PRO      O 4017   6.852  10.166   6.701
    6TRP      N 4018   6.893  10.165   6.478
    6TRP      H 4019   6.860  10.131   6.389
    6TRP     CA 4020   7.017  10.250   6.476
    6TRP     HA 4021   7.059  10.241   6.575
    6TRP     CB 4022   7.133  10.192   6.394
    6TRP    HB2 4023   7.166  10.096   6.437
    6TRP    HB3 4024   7.101  10.178   6.291
    6TRP     CG 4025   7.245  10.291   6.392
    6TRP    CD1 4026   7.288  10.354   6.278
    6TRP    HD1 4027   7.240  10.347   6.180
    6TRP    NE1 4028   7.384  10.439   6.305
    6TRP    HE1 4029   7.441  10.487   6.238
    6TRP    CE2 4030   7.418  10.428   6.438
    6TRP    CZ2 4031   7.517  10.498   6.517
    6TRP    HZ2 4032   7.596  10.564   6.483
    6TRP    CH2 4033   7.527  10.473   6.655
    6TRP    HH2 4034   7.600  10.523   6.717
    6TRP    CZ3 4035   7.443  10.380   6.712
    6TRP    HZ3 4036   7.456  10.345   6.813
    6TRP    CE3 4037   7.341  10.323   6.639
    6TRP    HE3 4038   7.295  10.239   6.687
    6TRP    CD2 4039   7.325  10.341   6.500
    6TRP      C 4040   6.991  10.395   6.434
    6TRP      O 4041   6.943  10.422   6.326
    7TRP      N 4042   7.021  10.494   6.522
    7TRP      H 4043   7.043  10.463   6.616
    7TRP     CA 4044   7.035  10.629   6.474
    7TRP     HA 4045   7.023  10.639   6.366
    7TRP     CB 4046   6.915  10.705   6.530
    7TRP    HB2 4047   6.819  10.656   6.513
    7TRP    HB3 4048   6.926  10.715   6.638
    7TRP     CG 4049   6.902  10.840   6.480
    7TRP    CD1 4050   6.876  10.948   6.550
    7TRP    HD1 4051   6.868  10.947   6.658
    7TRP    NE1 4052   6.869  11.056   6.466
    7TRP    HE1 4053   6.856  11.151   6.494
    7TRP    CE2 4054   6.872  11.022   6.329
    7TRP    CZ2 4055   6.855  11.098   6.210
    7TRP    HZ2 4056   6.839  11.205   6.215
    7TRP    CH2 4057   6.848  11.025   6.088
    7TRP    HH2 4058   6.814  11.078   6.000
    7TRP    CZ3 4059   6.843  10.883   6.095
    7TRP    HZ3 4060   6.816  10.828   6.005
    7TRP    CE3 4061   6.871  10.813   6.214
    7TRP    HE3 4062   6.863  10.705   6.215
    7TRP    CD2 4063   6.884  10.880   6.337
    7TRP      C 4064   7.171  10.682   6.515
    7TRP      O 4065   7.208  10.672   6.629
    8PRO      N 4066   7.242  10.754   6.425
    8PRO     CD 4067   7.234  10.752   6.278
    8PRO    HD2 4068   7.171  10.835   6.248
    8PRO    HD3 4069   7.196  10.654   6.247
    8PRO     CG 4070   7.374  10.788   6.228
    8PRO    HG2 4071   7.354  10.821   6.125
    8PRO    HG3 4072   7.441  10.702   6.232
    8PRO     CB 4073   7.420  10.890   6.332
    8PRO    HB2 4074   7.375  10.987   6.314
    8PRO    HB3 4075   7.528  10.889   6.329
    8PRO     CA 4076   7.364  10.827   6.458
    8PRO     HA 4077   7.434  10.754   6.500
    8PRO      C 4078   7.352  10.940   6.566
    8PRO      O 4079   7.449  11.008   6.599
    9TRP      N 4080   7.240  10.950   6.637
    9TRP      H 4081   7.164  10.888   6.615
    9TRP     CA 4082   7.213  11.037   6.752
    9TRP     HA 4083   7.301  11.073   6.807
    9TRP     CB 4084   7.154  11.167   6.692
    9TRP    HB2 4085   7.220  11.216   6.621
    9TRP    HB3 4086   7.061  11.141   6.642
    9TRP     CG 4087   7.119  11.277   6.788
    9TRP    CD1 4088   6.995  11.326   6.814
    9TRP    HD1 4089   6.905  11.299   6.760
    9TRP    NE1 4090   7.004  11.437   6.899
    9TRP    HE1 4091   6.932  11.506   6.913
    9TRP    CE2 4092   7.135  11.450   6.947
    9TRP    CZ2 4093   7.194  11.531   7.045
    9TRP    HZ2 4094   7.137  11.607   7.097
    9TRP    CH2 4095   7.326  11.511   7.075
    9TRP    HH2 4096   7.369  11.577   7.149
    9TRP    CZ3 4097   7.402  11.426   7.000
    9TRP    HZ3 4098   7.502  11.408   7.036
    9TRP    CE3 4099   7.350  11.346   6.901
    9TRP    HE3 4100   7.416  11.277   6.851
    9TRP    CD2 4101   7.210  11.354   6.874
    9TRP      C 4102   7.127  10.968   6.857
    9TRP      O 4103   7.053  10.884   6.821
   10ARG      N 4104   7.125  11.024   6.976
   10ARG      H 4105   7.152  11.122   6.975
   10ARG     CA 4106   7.036  10.987   7.088
   10ARG     HA 4107   7.042  10.879   7.102
   10ARG     CB 4108   7.070  11.052   7.226
   10ARG    HB2 4109   7.025  11.151   7.237
   10ARG    HB3 4110   7.032  10.984   7.302
   10ARG     CG 4111   7.218  11.077   7.248
   10ARG    HG2 4112   7.281  10.990   7.232
   10ARG    HG3 4113   7.249  11.153   7.177
   10ARG     CD 4114   7.251  11.130   7.386
   10ARG    HD2 4115   7.178  11.208   7.405
   10ARG    HD3 4116   7.218  11.060   7.462
   10ARG     NE 4117   7.398  11.169   7.389
   10ARG     HE 4118   7.467  11.102   7.360
   10ARG     CZ 4119   7.446  11.284   7.413
   10ARG    NH1 4120   7.371  11.392   7.434
   10ARG   HH11 4121   7.270  11.385   7.431
   10ARG   HH12 4122   7.419  11.473   7.467
   10ARG    NH2 4123   7.574  11.306   7.420
   10ARG   HH21 4124   7.622  11.258   7.346
   10ARG   HH22 4125   7.593  11.403   7.436
   10ARG      C 4126   6.887  11.002   7.054
   10ARG      O 4127   6.846  11.080   6.970
   11ARG      N 4128   6.804  10.921   7.120
   11ARG      H 4129   6.847  10.877   7.200
   11ARG     CA 4130   6.657  10.909   7.107
   11ARG     HA 4131   6.605  11.004   7.095
   11ARG     CB 4132   6.610  10.815   6.990
   11ARG    HB2 4133   6.671  10.726   6.976
   11ARG    HB3 4134   6.508  10.778   6.993
   11ARG     CG 4135   6.626  10.883   6.854
   11ARG    HG2 4136   6.555  10.965   6.846
   11ARG    HG3 4137   6.726  10.923   6.835
   11ARG     CD 4138   6.600  10.781   6.745
   11ARG    HD2 4139   6.628  10.828   6.650
   11ARG    HD3 4140   6.669  10.697   6.751
   11ARG     NE 4141   6.456  10.735   6.746
   11ARG     HE 4142   6.448  10.660   6.814
   11ARG     CZ 4143   6.352  10.812   6.717
   11ARG    NH1 4144   6.371  10.921   6.646
   11ARG   HH11 4145   6.466  10.937   6.618
   11ARG   HH12 4146   6.290  10.972   6.617
   11ARG    NH2 4147   6.234  10.781   6.750
   11ARG   HH21 4148   6.211  10.694   6.796
   11ARG   HH22 4149   6.167  10.857   6.744
   11ARG      C 4150   6.605  10.842   7.232
   11ARG      O 4151   6.676  10.778   7.307
   12LYS      N 4152   6.475  10.865   7.255
   12LYS      H 4153   6.424  10.901   7.176
   12LYS     CA 4154   6.395  10.808   7.364
   12LYS     HA 4155   6.445  10.718   7.400
   12LYS     CB 4156   6.384  10.909   7.482
   12LYS    HB2 4157   6.327  10.990   7.438
   12LYS    HB3 4158   6.323  10.862   7.559
   12LYS     CG 4159   6.515  10.963   7.546
   12LYS    HG2 4160   6.577  10.876   7.567
   12LYS    HG3 4161   6.578  11.012   7.473
   12LYS     CD 4162   6.497  11.055   7.668
   12LYS    HD2 4163   6.428  10.993   7.725
   12LYS    HD3 4164   6.591  11.072   7.720
   12LYS     CE 4165   6.415  11.181   7.641
   12LYS    HE2 4166   6.462  11.250   7.572
   12LYS    HE3 4167   6.322  11.159   7.591
   12LYS     NZ 4168   6.376  11.234   7.773
   12LYS    HZ1 4169   6.454  11.284   7.814
   12LYS    HZ2 4170   6.307  11.307   7.758
   12LYS    HZ3 4171   6.331  11.165   7.830
   12LYS      C 4172   6.251  10.760   7.322
   12LYS      O 4173   6.199  10.811   7.225
   13NHE      N 4174   6.189  10.680   7.403
   13NHE    HN1 4175   6.245  10.643   7.479
   13NHE    HN2 4176   6.095  10.655   7.380
    1ILE      N 4177   9.041   3.345  11.299
    1ILE     H1 4178   9.081   3.361  11.390
    1ILE     H2 4179   9.010   3.250  11.288
    1ILE     H3 4180   8.957   3.398  11.281
    1ILE     CA 4181   9.146   3.372  11.197
    1ILE     HA 4182   9.107   3.340  11.100
    1ILE     CB 4183   9.179   3.520  11.176
    1ILE     HB 4184   9.257   3.517  11.099
    1ILE    CG2 4185   9.053   3.581  11.114
    1ILE   HG21 4186   8.967   3.602  11.177
    1ILE   HG22 4187   9.072   3.681  11.076
    1ILE   HG23 4188   9.027   3.528  11.022
    1ILE    CG1 4189   9.219   3.589  11.306
    1ILE   HG12 4190   9.284   3.526  11.365
    1ILE   HG13 4191   9.133   3.626  11.362
    1ILE    CD1 4192   9.312   3.702  11.261
    1ILE   HD11 4193   9.359   3.754  11.345
    1ILE   HD12 4194   9.388   3.658  11.197
    1ILE   HD13 4195   9.259   3.780  11.207
    1ILE      C 4196   9.266   3.283  11.220
    1ILE      O 4197   9.295   3.256  11.340
    2LEU      N 4198   9.335   3.248  11.111
    2LEU      H 4199   9.305   3.291  11.025
    2LEU     CA 4200   9.457   3.165  11.117
    2LEU     HA 4201   9.438   3.086  11.190
    2LEU     CB 4202   9.487   3.104  10.977
    2LEU    HB2 4203   9.502   3.185  10.905
    2LEU    HB3 4204   9.574   3.039  10.977
    2LEU     CG 4205   9.372   3.028  10.912
    2LEU     HG 4206   9.278   3.078  10.894
    2LEU    CD1 4207   9.420   2.968  10.780
    2LEU   HD11 4208   9.516   2.917  10.783
    2LEU   HD12 4209   9.338   2.901  10.750
    2LEU   HD13 4210   9.420   3.037  10.695
    2LEU    CD2 4211   9.337   2.916  11.011
    2LEU   HD21 4212   9.280   2.962  11.092
    2LEU   HD22 4213   9.276   2.844  10.955
    2LEU   HD23 4214   9.425   2.861  11.044
    2LEU      C 4215   9.575   3.252  11.169
    2LEU      O 4216   9.581   3.371  11.143
    3ARG      N 4217   9.672   3.197  11.245
    3ARG      H 4218   9.657   3.102  11.276
    3ARG     CA 4219   9.792   3.268  11.291
    3ARG     HA 4220   9.759   3.371  11.294
    3ARG     CB 4221   9.815   3.222  11.435
    3ARG    HB2 4222   9.843   3.117  11.434
    3ARG    HB3 4223   9.895   3.282  11.479
    3ARG     CG 4224   9.700   3.243  11.536
    3ARG    HG2 4225   9.619   3.174  11.514
    3ARG    HG3 4226   9.734   3.204  11.633
    3ARG     CD 4227   9.647   3.387  11.553
    3ARG    HD2 4228   9.722   3.452  11.600
    3ARG    HD3 4229   9.628   3.445  11.463
    3ARG     NE 4230   9.527   3.399  11.648
    3ARG     HE 4231   9.511   3.322  11.710
    3ARG     CZ 4232   9.450   3.506  11.658
    3ARG    NH1 4233   9.459   3.606  11.577
    3ARG   HH11 4234   9.546   3.618  11.529
    3ARG   HH12 4235   9.389   3.678  11.594
    3ARG    NH2 4236   9.366   3.507  11.757
    3ARG   HH21 4237   9.351   3.425  11.814
    3ARG   HH22 4238   9.289   3.571  11.743
    3ARG      C 4239   9.909   3.276  11.191
    3ARG      O 4240  10.012   3.336  11.224
    4TRP      N 4241   9.885   3.231  11.067
    4TRP      H 4242   9.789   3.212  11.045
    4TRP     CA 4243   9.977   3.261  10.953
    4TRP     HA 4244  10.057   3.326  10.992
    4TRP     CB 4245  10.039   3.126  10.910
    4TRP    HB2 4246  10.082   3.133  10.811
    4TRP    HB3 4247  10.125   3.106  10.973
    4TRP     CG 4248   9.934   3.004  10.901
    4TRP    CD1 4249   9.844   2.997  10.798
    4TRP    HD1 4250   9.817   3.077  10.729
    4TRP    NE1 4251   9.780   2.877  10.804
    4TRP    HE1 4252   9.721   2.832  10.735
    4TRP    CE2 4253   9.817   2.801  10.917
    4TRP    CZ2 4254   9.780   2.682  10.979
    4TRP    HZ2 4255   9.702   2.622  10.938
    4TRP    CH2 4256   9.840   2.633  11.096
    4TRP    HH2 4257   9.815   2.537  11.138
    4TRP    CZ3 4258   9.938   2.713  11.160
    4TRP    HZ3 4259   9.984   2.692  11.257
    4TRP    CE3 4260   9.972   2.835  11.101
    4TRP    HE3 4261  10.054   2.895  11.136
    4TRP    CD2 4262   9.917   2.882  10.978
    4TRP      C 4263   9.905   3.347  10.841
    4TRP      O 4264   9.784   3.347  10.838
    5PRO      N 4265   9.982   3.420  10.753
    5PRO     CD 4266  10.122   3.438  10.750
    5PRO    HD2 4267  10.178   3.345  10.759
    5PRO    HD3 4268  10.154   3.502  10.831
    5PRO     CG 4269  10.156   3.507  10.617
    5PRO    HG2 4270  10.163   3.431  10.540
    5PRO    HG3 4271  10.244   3.572  10.622
    5PRO     CB 4272  10.019   3.584  10.579
    5PRO    HB2 4273  10.006   3.595  10.472
    5PRO    HB3 4274  10.018   3.677  10.636
    5PRO     CA 4275   9.909   3.490  10.642
    5PRO     HA 4276   9.836   3.552  10.692
    5PRO      C 4277   9.842   3.392  10.547
    5PRO      O 4278   9.904   3.300  10.492
    6TRP      N 4279   9.716   3.423  10.526
    6TRP      H 4280   9.679   3.506  10.571
    6TRP     CA 4281   9.619   3.342  10.445
    6TRP     HA 4282   9.662   3.243  10.440
    6TRP     CB 4283   9.488   3.310  10.517
    6TRP    HB2 4284   9.507   3.249  10.606
    6TRP    HB3 4285   9.438   3.403  10.544
    6TRP     CG 4286   9.397   3.239  10.421
    6TRP    CD1 4287   9.279   3.291  10.376
    6TRP    HD1 4288   9.243   3.391  10.395
    6TRP    NE1 4289   9.222   3.210  10.290
    6TRP    HE1 4290   9.129   3.218  10.253
    6TRP    CE2 4291   9.295   3.092  10.283
    6TRP    CZ2 4292   9.274   2.972  10.205
    6TRP    HZ2 4293   9.187   2.945  10.146
    6TRP    CH2 4294   9.369   2.869  10.210
    6TRP    HH2 4295   9.357   2.777  10.154
    6TRP    CZ3 4296   9.478   2.883  10.292
    6TRP    HZ3 4297   9.546   2.801  10.312
    6TRP    CE3 4298   9.503   3.002  10.356
    6TRP    HE3 4299   9.580   2.996  10.432
    6TRP    CD2 4300   9.413   3.111  10.359
    6TRP      C 4301   9.590   3.402  10.306
    6TRP      O 4302   9.543   3.513  10.294
    7TRP      N 4303   9.620   3.328  10.197
    7TRP      H 4304   9.676   3.245  10.215
    7TRP     CA 4305   9.560   3.361  10.070
    7TRP     HA 4306   9.491   3.445  10.075
    7TRP     CB 4307   9.674   3.416   9.984
    7TRP    HB2 4308   9.734   3.493  10.034
    7TRP    HB3 4309   9.743   3.335   9.960
    7TRP     CG 4310   9.632   3.471   9.857
    7TRP    CD1 4311   9.687   3.450   9.740
    7TRP    HD1 4312   9.770   3.382   9.725
    7TRP    NE1 4313   9.618   3.522   9.645
    7TRP    HE1 4314   9.637   3.519   9.546
    7TRP    CE2 4315   9.523   3.611   9.698
    7TRP    CZ2 4316   9.440   3.711   9.640
    7TRP    HZ2 4317   9.443   3.728   9.533
    7TRP    CH2 4318   9.367   3.794   9.729
    7TRP    HH2 4319   9.321   3.883   9.688
    7TRP    CZ3 4320   9.392   3.781   9.869
    7TRP    HZ3 4321   9.354   3.857   9.935
    7TRP    CE3 4322   9.466   3.674   9.921
    7TRP    HE3 4323   9.485   3.670  10.028
    7TRP    CD2 4324   9.537   3.585   9.838
    7TRP      C 4325   9.490   3.239  10.015
    7TRP      O 4326   9.547   3.134  10.009
    8PRO      N 4327   9.368   3.255   9.958
    8PRO     CD 4328   9.268   3.362   9.982
    8PRO    HD2 4329   9.280   3.435   9.902
    8PRO    HD3 4330   9.285   3.402  10.082
    8PRO     CG 4331   9.132   3.298   9.955
    8PRO    HG2 4332   9.068   3.385   9.937
    8PRO    HG3 4333   9.099   3.239  10.041
    8PRO     CB 4334   9.162   3.202   9.841
    8PRO    HB2 4335   9.169   3.254   9.747
    8PRO    HB3 4336   9.085   3.125   9.846
    8PRO     CA 4337   9.298   3.151   9.885
    8PRO     HA 4338   9.288   3.065   9.952
    8PRO      C 4339   9.370   3.095   9.757
    8PRO      O 4340   9.319   3.007   9.687
    9TRP      N 4341   9.497   3.128   9.734
    9TRP      H 4342   9.541   3.193   9.797
    9TRP     CA 4343   9.588   3.075   9.631
    9TRP     HA 4344   9.562   2.978   9.590
    9TRP     CB 4345   9.570   3.169   9.510
    9TRP    HB2 4346   9.468   3.174   9.473
    9TRP    HB3 4347   9.602   3.269   9.541
    9TRP     CG 4348   9.650   3.139   9.387
    9TRP    CD1 4349   9.749   3.214   9.332
    9TRP    HD1 4350   9.775   3.314   9.364
    9TRP    NE1 4351   9.789   3.158   9.210
    9TRP    HE1 4352   9.841   3.207   9.138
    9TRP    CE2 4353   9.732   3.031   9.193
    9TRP    CZ2 4354   9.751   2.929   9.100
    9TRP    HZ2 4355   9.818   2.940   9.017
    9TRP    CH2 4356   9.684   2.811   9.119
    9TRP    HH2 4357   9.699   2.734   9.044
    9TRP    CZ3 4358   9.588   2.800   9.215
    9TRP    HZ3 4359   9.547   2.702   9.230
    9TRP    CE3 4360   9.563   2.900   9.308
    9TRP    HE3 4361   9.490   2.881   9.384
    9TRP    CD2 4362   9.639   3.020   9.300
    9TRP      C 4363   9.730   3.060   9.683
    9TRP      O 4364   9.765   3.131   9.769
   10ARG      N 4365   9.810   2.984   9.610
   10ARG      H 4366   9.779   2.973   9.515
   10ARG     CA 4367   9.956   2.968   9.629
   10ARG     HA 4368   9.974   2.947   9.734
   10ARG     CB 4369  10.023   2.855   9.546
   10ARG    HB2 4370  10.050   2.888   9.445
   10ARG    HB3 4371  10.111   2.824   9.601
   10ARG     CG 4372   9.933   2.735   9.521
   10ARG    HG2 4373   9.889   2.693   9.611
   10ARG    HG3 4374   9.853   2.767   9.457
   10ARG     CD 4375  10.003   2.621   9.450
   10ARG    HD2 4376  10.058   2.667   9.369
   10ARG    HD3 4377  10.089   2.587   9.508
   10ARG     NE 4378   9.899   2.515   9.414
   10ARG     HE 4379   9.839   2.480   9.486
   10ARG     CZ 4380   9.870   2.474   9.298
   10ARG    NH1 4381   9.923   2.523   9.187
   10ARG   HH11 4382   9.992   2.596   9.192
   10ARG   HH12 4383   9.904   2.472   9.103
   10ARG    NH2 4384   9.784   2.378   9.279
   10ARG   HH21 4385   9.703   2.390   9.337
   10ARG   HH22 4386   9.771   2.361   9.181
   10ARG      C 4387  10.032   3.101   9.615
   10ARG      O 4388   9.991   3.195   9.549
   11ARG      N 4389  10.147   3.110   9.684
   11ARG      H 4390  10.179   3.020   9.718
   11ARG     CA 4391  10.240   3.224   9.694
   11ARG     HA 4392  10.256   3.278   9.601
   11ARG     CB 4393  10.200   3.330   9.803
   11ARG    HB2 4394  10.158   3.289   9.895
   11ARG    HB3 4395  10.277   3.399   9.837
   11ARG     CG 4396  10.084   3.417   9.755
   11ARG    HG2 4397  10.117   3.481   9.674
   11ARG    HG3 4398   9.997   3.362   9.720
   11ARG     CD 4399  10.036   3.503   9.871
   11ARG    HD2 4400   9.944   3.551   9.839
   11ARG    HD3 4401  10.003   3.442   9.955
   11ARG     NE 4402  10.141   3.602   9.913
   11ARG     HE 4403  10.204   3.555   9.978
   11ARG     CZ 4404  10.184   3.704   9.839
   11ARG    NH1 4405  10.107   3.747   9.742
   11ARG   HH11 4406  10.019   3.699   9.732
   11ARG   HH12 4407  10.136   3.831   9.693
   11ARG    NH2 4408  10.292   3.764   9.862
   11ARG   HH21 4409  10.351   3.743   9.941
   11ARG   HH22 4410  10.325   3.822   9.786
   11ARG      C 4411  10.373   3.170   9.742
   11ARG      O 4412  10.386   3.062   9.796
   12LYS      N 4413  10.476   3.250   9.713
   12LYS      H 4414  10.450   3.344   9.687
   12LYS     CA 4415  10.616   3.228   9.752
   12LYS     HA 4416  10.619   3.161   9.837
   12LYS     CB 4417  10.696   3.164   9.635
   12LYS    HB2 4418  10.694   3.242   9.560
   12LYS    HB3 4419  10.799   3.152   9.669
   12LYS     CG 4420  10.645   3.030   9.576
   12LYS    HG2 4421  10.627   2.964   9.660
   12LYS    HG3 4422  10.544   3.038   9.538
   12LYS     CD 4423  10.733   2.966   9.466
   12LYS    HD2 4424  10.829   2.972   9.518
   12LYS    HD3 4425  10.704   2.864   9.445
   12LYS     CE 4426  10.755   3.055   9.344
   12LYS    HE2 4427  10.666   3.074   9.286
   12LYS    HE3 4428  10.787   3.155   9.371
   12LYS     NZ 4429  10.871   2.997   9.272
   12LYS    HZ1 4430  10.840   2.916   9.218
   12LYS    HZ2 4431  10.899   3.062   9.200
   12LYS    HZ3 4432  10.951   2.985   9.331
   12LYS      C 4433  10.691   3.357   9.802
   12LYS      O 4434  10.652   3.466   9.764
   13NHE      N 4435  10.802   3.341   9.868
   13NHE    HN1 4436  10.822   3.245   9.896
   13NHE    HN2 4437  10.853   3.422   9.894
    1ILE      N 4438   3.497   3.425   7.273
    1ILE     H1 4439   3.446   3.404   7.358
    1ILE     H2 4440   3.550   3.510   7.280
    1ILE     H3 4441   3.568   3.356   7.251
    1ILE     CA 4442   3.399   3.439   7.162
    1ILE     HA 4443   3.453   3.475   7.074
    1ILE     CB 4444   3.335   3.308   7.114
    1ILE     HB 4445   3.268   3.341   7.034
    1ILE    CG2 4446   3.449   3.229   7.050
    1ILE   HG21 4447   3.522   3.178   7.114
    1ILE   HG22 4448   3.412   3.143   6.995
    1ILE   HG23 4449   3.495   3.287   6.970
    1ILE    CG1 4450   3.268   3.232   7.228
    1ILE   HG12 4451   3.214   3.299   7.293
    1ILE   HG13 4452   3.338   3.167   7.283
    1ILE    CD1 4453   3.157   3.153   7.159
    1ILE   HD11 4454   3.091   3.102   7.230
    1ILE   HD12 4455   3.099   3.224   7.099
    1ILE   HD13 4456   3.195   3.074   7.095
    1ILE      C 4457   3.301   3.550   7.192
    1ILE      O 4458   3.267   3.565   7.313
    2LEU      N 4459   3.253   3.617   7.087
    2LEU      H 4460   3.281   3.581   6.997
    2LEU     CA 4461   3.153   3.724   7.100
    2LEU     HA 4462   3.182   3.785   7.186
    2LEU     CB 4463   3.152   3.811   6.970
    2LEU    HB2 4464   3.126   3.748   6.885
    2LEU    HB3 4465   3.082   3.894   6.976
    2LEU     CG 4466   3.286   3.866   6.926
    2LEU     HG 4467   3.368   3.798   6.906
    2LEU    CD1 4468   3.267   3.955   6.804
    2LEU   HD11 4469   3.185   4.027   6.809
    2LEU   HD12 4470   3.364   4.004   6.790
    2LEU   HD13 4471   3.259   3.902   6.708
    2LEU    CD2 4472   3.336   3.950   7.044
    2LEU   HD21 4473   3.373   3.880   7.120
    2LEU   HD22 4474   3.417   4.013   7.005
    2LEU   HD23 4475   3.260   4.019   7.081
    2LEU      C 4476   3.013   3.661   7.128
    2LEU      O 4477   2.984   3.553   7.083
    3ARG      N 4478   2.925   3.726   7.208
    3ARG      H 4479   2.957   3.809   7.254
    3ARG     CA 4480   2.787   3.681   7.234
    3ARG     HA 4481   2.796   3.573   7.221
    3ARG     CB 4482   2.762   3.708   7.382
    3ARG    HB2 4483   2.759   3.816   7.396
    3ARG    HB3 4484   2.667   3.663   7.410
    3ARG     CG 4485   2.858   3.645   7.484
    3ARG    HG2 4486   2.955   3.695   7.479
    3ARG    HG3 4487   2.825   3.676   7.584
    3ARG     CD 4488   2.875   3.492   7.480
    3ARG    HD2 4489   2.784   3.441   7.510
    3ARG    HD3 4490   2.890   3.446   7.382
    3ARG     NE 4491   2.979   3.437   7.578
    3ARG     HE 4492   3.006   3.498   7.653
    3ARG     CZ 4493   3.028   3.314   7.575
    3ARG    NH1 4494   3.005   3.233   7.477
    3ARG   HH11 4495   2.923   3.249   7.423
    3ARG   HH12 4496   3.054   3.144   7.486
    3ARG    NH2 4497   3.100   3.278   7.677
    3ARG   HH21 4498   3.128   3.345   7.748
    3ARG   HH22 4499   3.161   3.201   7.657
    3ARG      C 4500   2.683   3.716   7.127
    3ARG      O 4501   2.565   3.678   7.143
    4TRP      N 4502   2.728   3.772   7.014
    4TRP      H 4503   2.828   3.770   7.001
    4TRP     CA 4504   2.643   3.782   6.891
    4TRP     HA 4505   2.547   3.734   6.913
    4TRP     CB 4506   2.618   3.933   6.868
    4TRP    HB2 4507   2.585   3.952   6.766
    4TRP    HB3 4508   2.533   3.964   6.928
    4TRP     CG 4509   2.749   4.027   6.886
    4TRP    CD1 4510   2.848   4.026   6.791
    4TRP    HD1 4511   2.862   3.954   6.711
    4TRP    NE1 4512   2.936   4.126   6.822
    4TRP    HE1 4513   3.010   4.165   6.765
    4TRP    CE2 4514   2.907   4.190   6.943
    4TRP    CZ2 4515   2.963   4.286   7.026
    4TRP    HZ2 4516   3.057   4.331   7.001
    4TRP    CH2 4517   2.906   4.330   7.146
    4TRP    HH2 4518   2.947   4.410   7.205
    4TRP    CZ3 4519   2.785   4.267   7.190
    4TRP    HZ3 4520   2.737   4.284   7.285
    4TRP    CE3 4521   2.731   4.167   7.108
    4TRP    HE3 4522   2.634   4.124   7.128
    4TRP    CD2 4523   2.785   4.128   6.983
    4TRP      C 4524   2.704   3.699   6.770
    4TRP      O 4525   2.822   3.670   6.774
    5PRO      N 4526   2.622   3.661   6.667
    5PRO     CD 4527   2.482   3.678   6.652
    5PRO    HD2 4528   2.449   3.780   6.674
    5PRO    HD3 4529   2.428   3.612   6.719
    5PRO     CG 4530   2.447   3.640   6.508
    5PRO    HG2 4531   2.465   3.726   6.445
    5PRO    HG3 4532   2.346   3.598   6.496
    5PRO     CB 4533   2.566   3.539   6.466
    5PRO    HB2 4534   2.586   3.542   6.359
    5PRO    HB3 4535   2.540   3.441   6.507
    5PRO     CA 4536   2.687   3.593   6.551
    5PRO     HA 4537   2.739   3.508   6.594
    5PRO      C 4538   2.784   3.685   6.477
    5PRO      O 4539   2.751   3.797   6.435
    6TRP      N 4540   2.901   3.628   6.459
    6TRP      H 4541   2.914   3.533   6.491
    6TRP     CA 4542   3.022   3.694   6.399
    6TRP     HA 4543   3.003   3.801   6.408
    6TRP     CB 4544   3.149   3.683   6.483
    6TRP    HB2 4545   3.135   3.733   6.579
    6TRP    HB3 4546   3.174   3.578   6.497
    6TRP     CG 4547   3.263   3.744   6.406
    6TRP    CD1 4548   3.370   3.672   6.360
    6TRP    HD1 4549   3.380   3.564   6.364
    6TRP    NE1 4550   3.452   3.749   6.293
    6TRP    HE1 4551   3.544   3.724   6.261
    6TRP    CE2 4552   3.409   3.880   6.302
    6TRP    CZ2 4553   3.464   4.002   6.246
    6TRP    HZ2 4554   3.560   4.017   6.198
    6TRP    CH2 4555   3.395   4.124   6.263
    6TRP    HH2 4556   3.433   4.217   6.224
    6TRP    CZ3 4557   3.278   4.124   6.335
    6TRP    HZ3 4558   3.229   4.216   6.365
    6TRP    CE3 4559   3.220   4.006   6.376
    6TRP    HE3 4560   3.140   4.019   6.447
    6TRP    CD2 4561   3.282   3.880   6.365
    6TRP      C 4562   3.050   3.651   6.254
    6TRP      O 4563   3.071   3.535   6.226
    7TRP      N 4564   3.048   3.746   6.157
    7TRP      H 4565   3.011   3.836   6.185
    7TRP     CA 4566   3.111   3.719   6.030
    7TRP     HA 4567   3.159   3.620   6.025
    7TRP     CB 4568   2.996   3.706   5.930
    7TRP    HB2 4569   2.916   3.639   5.962
    7TRP    HB3 4570   2.951   3.804   5.915
    7TRP     CG 4571   3.037   3.662   5.798
    7TRP    CD1 4572   3.000   3.713   5.683
    7TRP    HD1 4573   2.937   3.801   5.675
    7TRP    NE1 4574   3.060   3.642   5.582
    7TRP    HE1 4575   3.052   3.664   5.484
    7TRP    CE2 4576   3.127   3.526   5.625
    7TRP    CZ2 4577   3.190   3.419   5.555
    7TRP    HZ2 4578   3.194   3.419   5.447
    7TRP    CH2 4579   3.233   3.309   5.633
    7TRP    HH2 4580   3.261   3.218   5.581
    7TRP    CZ3 4581   3.198   3.306   5.772
    7TRP    HZ3 4582   3.211   3.213   5.826
    7TRP    CE3 4583   3.146   3.419   5.837
    7TRP    HE3 4584   3.118   3.411   5.941
    7TRP    CD2 4585   3.105   3.533   5.765
    7TRP      C 4586   3.213   3.827   6.001
    7TRP      O 4587   3.181   3.943   6.010
    8PRO      N 4588   3.332   3.790   5.950
    8PRO     CD 4589   3.402   3.660   5.961
    8PRO    HD2 4590   3.382   3.606   5.869
    8PRO    HD3 4591   3.367   3.611   6.052
    8PRO     CG 4592   3.552   3.693   5.954
    8PRO    HG2 4593   3.595   3.597   5.925
    8PRO    HG3 4594   3.588   3.728   6.050
    8PRO     CB 4595   3.556   3.810   5.856
    8PRO    HB2 4596   3.546   3.775   5.754
    8PRO    HB3 4597   3.647   3.864   5.878
    8PRO     CA 4598   3.431   3.885   5.899
    8PRO     HA 4599   3.453   3.954   5.981
    8PRO      C 4600   3.387   3.975   5.779
    8PRO      O 4601   3.463   4.057   5.728
    9TRP      N 4602   3.258   3.978   5.743
    9TRP      H 4603   3.194   3.917   5.792
    9TRP     CA 4604   3.193   4.065   5.645
    9TRP     HA 4605   3.244   4.159   5.623
    9TRP     CB 4606   3.200   3.989   5.511
    9TRP    HB2 4607   3.301   3.965   5.480
    9TRP    HB3 4608   3.144   3.896   5.522
    9TRP     CG 4609   3.142   4.056   5.391
    9TRP    CD1 4610   3.035   4.016   5.317
    9TRP    HD1 4611   2.983   3.922   5.331
    9TRP    NE1 4612   3.020   4.097   5.205
    9TRP    HE1 4613   2.966   4.074   5.123
    9TRP    CE2 4614   3.106   4.208   5.213
    9TRP    CZ2 4615   3.120   4.325   5.138
    9TRP    HZ2 4616   3.061   4.343   5.050
    9TRP    CH2 4617   3.210   4.419   5.180
    9TRP    HH2 4618   3.221   4.507   5.119
    9TRP    CZ3 4619   3.296   4.392   5.282
    9TRP    HZ3 4620   3.357   4.474   5.317
    9TRP    CE3 4621   3.289   4.276   5.358
    9TRP    HE3 4622   3.356   4.265   5.441
    9TRP    CD2 4623   3.188   4.181   5.326
    9TRP      C 4624   3.053   4.106   5.690
    9TRP      O 4625   2.994   4.034   5.761
   10ARG      N 4626   3.000   4.210   5.627
   10ARG      H 4627   3.042   4.227   5.536
   10ARG     CA 4628   2.861   4.257   5.639
   10ARG     HA 4629   2.838   4.266   5.745
   10ARG     CB 4630   2.830   4.394   5.572
   10ARG    HB2 4631   2.806   4.384   5.466
   10ARG    HB3 4632   2.746   4.436   5.627
   10ARG     CG 4633   2.947   4.491   5.574
   10ARG    HG2 4634   2.990   4.508   5.672
   10ARG    HG3 4635   3.023   4.451   5.510
   10ARG     CD 4636   2.912   4.628   5.519
   10ARG    HD2 4637   2.856   4.609   5.428
   10ARG    HD3 4638   2.831   4.673   5.577
   10ARG     NE 4639   3.040   4.710   5.508
   10ARG     HE 4640   3.100   4.719   5.588
   10ARG     CZ 4641   3.090   4.760   5.402
   10ARG    NH1 4642   3.038   4.743   5.282
   10ARG   HH11 4643   2.954   4.688   5.270
   10ARG   HH12 4644   3.076   4.800   5.208
   10ARG    NH2 4645   3.196   4.834   5.405
   10ARG   HH21 4646   3.266   4.794   5.465
   10ARG   HH22 4647   3.223   4.862   5.312
   10ARG      C 4648   2.758   4.150   5.598
   10ARG      O 4649   2.783   4.060   5.520
   11ARG      N 4650   2.638   4.159   5.658
   11ARG      H 4651   2.624   4.248   5.704
   11ARG     CA 4652   2.521   4.071   5.643
   11ARG     HA 4653   2.502   4.037   5.541
   11ARG     CB 4654   2.525   3.943   5.734
   11ARG    HB2 4655   2.565   3.959   5.835
   11ARG    HB3 4656   2.431   3.890   5.752
   11ARG     CG 4657   2.622   3.838   5.680
   11ARG    HG2 4658   2.583   3.797   5.587
   11ARG    HG3 4659   2.722   3.876   5.660
   11ARG     CD 4660   2.637   3.727   5.782
   11ARG    HD2 4661   2.719   3.663   5.748
   11ARG    HD3 4662   2.675   3.765   5.877
   11ARG     NE 4663   2.509   3.651   5.800
   11ARG     HE 4664   2.452   3.701   5.868
   11ARG     CZ 4665   2.452   3.575   5.707
   11ARG    NH1 4666   2.525   3.529   5.609
   11ARG   HH11 4667   2.623   3.556   5.613
   11ARG   HH12 4668   2.483   3.464   5.545
   11ARG    NH2 4669   2.330   3.540   5.713
   11ARG   HH21 4670   2.270   3.563   5.791
   11ARG   HH22 4671   2.292   3.504   5.627
   11ARG      C 4672   2.400   4.147   5.692
   11ARG      O 4673   2.406   4.245   5.762
   12LYS      N 4674   2.284   4.100   5.643
   12LYS      H 4675   2.290   4.007   5.603
   12LYS     CA 4676   2.150   4.149   5.677
   12LYS     HA 4677   2.154   4.201   5.772
   12LYS     CB 4678   2.099   4.247   5.568
   12LYS    HB2 4679   2.090   4.183   5.481
   12LYS    HB3 4680   1.999   4.278   5.597
   12LYS     CG 4681   2.184   4.372   5.535
   12LYS    HG2 4682   2.209   4.419   5.630
   12LYS    HG3 4683   2.284   4.346   5.503
   12LYS     CD 4684   2.124   4.471   5.433
   12LYS    HD2 4685   2.025   4.481   5.477
   12LYS    HD3 4686   2.178   4.565   5.431
   12LYS     CE 4687   2.095   4.410   5.296
   12LYS    HE2 4688   2.183   4.378   5.242
   12LYS    HE3 4689   2.038   4.317   5.304
   12LYS     NZ 4690   2.003   4.504   5.228
   12LYS    HZ1 4691   2.056   4.582   5.191
   12LYS    HZ2 4692   1.968   4.459   5.145
   12LYS    HZ3 4693   1.922   4.526   5.284
   12LYS      C 4694   2.043   4.035   5.700
   12LYS      O 4695   2.060   3.927   5.646
   13NHE      N 4696   1.933   4.068   5.761
   13NHE    HN1 4697   1.932   4.160   5.803
   13NHE    HN2 4698   1.862   3.998   5.770
    1ILE      N 4699   7.451   9.652   4.060
    1ILE     H1 4700   7.446   9.751   4.079
    1ILE     H2 4701   7.529   9.629   4.001
    1ILE     H3 4702   7.469   9.597   4.142
    1ILE     CA 4703   7.326   9.610   3.993
    1ILE     HA 4704   7.338   9.507   3.960
    1ILE     CB 4705   7.202   9.605   4.082
    1ILE     HB 4706   7.123   9.573   4.014
    1ILE    CG2 4707   7.229   9.491   4.180
    1ILE   HG21 4708   7.297   9.507   4.264
    1ILE   HG22 4709   7.139   9.465   4.236
    1ILE   HG23 4710   7.247   9.398   4.126
    1ILE    CG1 4711   7.177   9.738   4.153
    1ILE   HG12 4712   7.193   9.821   4.086
    1ILE   HG13 4713   7.233   9.747   4.247
    1ILE    CD1 4714   7.025   9.740   4.176
    1ILE   HD11 4715   6.990   9.836   4.215
    1ILE   HD12 4716   6.978   9.720   4.079
    1ILE   HD13 4717   6.993   9.667   4.248
    1ILE      C 4718   7.308   9.687   3.864
    1ILE      O 4719   7.347   9.807   3.863
    2LEU      N 4720   7.243   9.623   3.765
    2LEU      H 4721   7.207   9.533   3.789
    2LEU     CA 4722   7.214   9.686   3.635
    2LEU     HA 4723   7.302   9.743   3.606
    2LEU     CB 4724   7.182   9.577   3.529
    2LEU    HB2 4725   7.095   9.520   3.562
    2LEU    HB3 4726   7.163   9.619   3.430
    2LEU     CG 4727   7.285   9.467   3.514
    2LEU     HG 4728   7.313   9.407   3.599
    2LEU    CD1 4729   7.244   9.373   3.401
    2LEU   HD11 4730   7.211   9.421   3.309
    2LEU   HD12 4731   7.332   9.309   3.385
    2LEU   HD13 4732   7.170   9.298   3.428
    2LEU    CD2 4733   7.416   9.540   3.477
    2LEU   HD21 4734   7.454   9.585   3.568
    2LEU   HD22 4735   7.483   9.463   3.438
    2LEU   HD23 4736   7.401   9.611   3.395
    2LEU      C 4737   7.095   9.786   3.653
    2LEU      O 4738   7.007   9.765   3.734
    3ARG      N 4739   7.090   9.900   3.580
    3ARG      H 4740   7.171   9.921   3.523
    3ARG     CA 4741   6.979   9.996   3.581
    3ARG     HA 4742   6.938   9.982   3.681
    3ARG     CB 4743   7.043  10.134   3.577
    3ARG    HB2 4744   7.090  10.147   3.480
    3ARG    HB3 4745   6.966  10.209   3.593
    3ARG     CG 4746   7.145  10.170   3.687
    3ARG    HG2 4747   7.236  10.113   3.672
    3ARG    HG3 4748   7.180  10.272   3.668
    3ARG     CD 4749   7.097  10.158   3.833
    3ARG    HD2 4750   7.021  10.234   3.856
    3ARG    HD3 4751   7.042  10.069   3.862
    3ARG     NE 4752   7.205  10.186   3.938
    3ARG     HE 4753   7.287  10.235   3.906
    3ARG     CZ 4754   7.194  10.159   4.067
    3ARG    NH1 4755   7.096  10.089   4.115
    3ARG   HH11 4756   7.012  10.087   4.062
    3ARG   HH12 4757   7.105  10.071   4.215
    3ARG    NH2 4758   7.287  10.207   4.144
    3ARG   HH21 4759   7.370  10.251   4.106
    3ARG   HH22 4760   7.294  10.158   4.232
    3ARG      C 4761   6.858   9.961   3.493
    3ARG      O 4762   6.760  10.038   3.492
    4TRP      N 4763   6.858   9.841   3.434
    4TRP      H 4764   6.929   9.777   3.466
    4TRP     CA 4765   6.736   9.783   3.372
    4TRP     HA 4766   6.653   9.853   3.389
    4TRP     CB 4767   6.763   9.775   3.220
    4TRP    HB2 4768   6.694   9.706   3.171
    4TRP    HB3 4769   6.739   9.871   3.175
    4TRP     CG 4770   6.909   9.720   3.180
    4TRP    CD1 4771   6.939   9.586   3.194
    4TRP    HD1 4772   6.883   9.512   3.250
    4TRP    NE1 4773   7.062   9.564   3.138
    4TRP    HE1 4774   7.106   9.476   3.115
    4TRP    CE2 4775   7.124   9.682   3.093
    4TRP    CZ2 4776   7.246   9.721   3.040
    4TRP    HZ2 4777   7.324   9.649   3.024
    4TRP    CH2 4778   7.277   9.852   3.004
    4TRP    HH2 4779   7.370   9.880   2.956
    4TRP    CZ3 4780   7.182   9.954   3.031
    4TRP    HZ3 4781   7.198  10.061   3.018
    4TRP    CE3 4782   7.061   9.915   3.089
    4TRP    HE3 4783   6.979   9.985   3.101
    4TRP    CD2 4784   7.025   9.781   3.118
    4TRP      C 4785   6.691   9.649   3.444
    4TRP      O 4786   6.774   9.589   3.511
    5PRO      N 4787   6.561   9.605   3.432
    5PRO     CD 4788   6.452   9.668   3.367
    5PRO    HD2 4789   6.476   9.703   3.266
    5PRO    HD3 4790   6.418   9.754   3.424
    5PRO     CG 4791   6.338   9.565   3.362
    5PRO    HG2 4792   6.354   9.501   3.275
    5PRO    HG3 4793   6.238   9.609   3.365
    5PRO     CB 4794   6.371   9.467   3.486
    5PRO    HB2 4795   6.335   9.366   3.469
    5PRO    HB3 4796   6.333   9.516   3.576
    5PRO     CA 4797   6.528   9.473   3.493
    5PRO     HA 4798   6.557   9.482   3.597
    5PRO      C 4799   6.602   9.358   3.425
    5PRO      O 4800   6.599   9.340   3.303
    6TRP      N 4801   6.662   9.281   3.513
    6TRP      H 4802   6.652   9.303   3.611
    6TRP     CA 4803   6.752   9.165   3.480
    6TRP     HA 4804   6.783   9.182   3.377
    6TRP     CB 4805   6.888   9.168   3.550
    6TRP    HB2 4806   6.945   9.256   3.518
    6TRP    HB3 4807   6.874   9.168   3.657
    6TRP     CG 4808   6.962   9.042   3.515
    6TRP    CD1 4809   6.995   8.946   3.608
    6TRP    HD1 4810   6.963   8.946   3.711
    6TRP    NE1 4811   7.055   8.845   3.551
    6TRP    HE1 4812   7.101   8.769   3.597
    6TRP    CE2 4813   7.076   8.874   3.417
    6TRP    CZ2 4814   7.139   8.797   3.311
    6TRP    HZ2 4815   7.195   8.705   3.321
    6TRP    CH2 4816   7.140   8.846   3.180
    6TRP    HH2 4817   7.187   8.793   3.099
    6TRP    CZ3 4818   7.085   8.970   3.155
    6TRP    HZ3 4819   7.097   9.020   3.061
    6TRP    CE3 4820   7.015   9.037   3.253
    6TRP    HE3 4821   6.993   9.139   3.229
    6TRP    CD2 4822   7.009   8.996   3.388
    6TRP      C 4823   6.685   9.028   3.500
    6TRP      O 4824   6.643   8.994   3.609
    7TRP      N 4825   6.672   8.947   3.393
    7TRP      H 4826   6.692   8.989   3.303
    7TRP     CA 4827   6.648   8.806   3.414
    7TRP     HA 4828   6.644   8.777   3.519
    7TRP     CB 4829   6.504   8.782   3.367
    7TRP    HB2 4830   6.432   8.852   3.409
    7TRP    HB3 4831   6.499   8.793   3.259
    7TRP     CG 4832   6.454   8.649   3.395
    7TRP    CD1 4833   6.387   8.571   3.313
    7TRP    HD1 4834   6.368   8.598   3.210
    7TRP    NE1 4835   6.356   8.455   3.378
    7TRP    HE1 4836   6.310   8.376   3.336
    7TRP    CE2 4837   6.384   8.456   3.516
    7TRP    CZ2 4838   6.357   8.365   3.621
    7TRP    HZ2 4839   6.307   8.271   3.601
    7TRP    CH2 4840   6.387   8.409   3.753
    7TRP    HH2 4841   6.348   8.350   3.835
    7TRP    CZ3 4842   6.428   8.544   3.772
    7TRP    HZ3 4843   6.429   8.584   3.873
    7TRP    CE3 4844   6.463   8.626   3.663
    7TRP    HE3 4845   6.490   8.730   3.682
    7TRP    CD2 4846   6.440   8.587   3.530
    7TRP      C 4847   6.754   8.726   3.341
    7TRP      O 4848   6.779   8.749   3.226
    8PRO      N 4849   6.807   8.618   3.405
    8PRO     CD 4850   6.817   8.592   3.550
    8PRO    HD2 4851   6.735   8.526   3.575
    8PRO    HD3 4852   6.816   8.688   3.602
    8PRO     CG 4853   6.942   8.506   3.568
    8PRO    HG2 4854   6.925   8.459   3.665
    8PRO    HG3 4855   7.033   8.567   3.567
    8PRO     CB 4856   6.942   8.420   3.442
    8PRO    HB2 4857   6.870   8.339   3.450
    8PRO    HB3 4858   7.045   8.389   3.426
    8PRO     CA 4859   6.896   8.522   3.340
    8PRO     HA 4860   6.980   8.579   3.300
    8PRO      C 4861   6.836   8.443   3.218
    8PRO      O 4862   6.902   8.359   3.158
    9TRP      N 4863   6.720   8.482   3.166
    9TRP      H 4864   6.670   8.558   3.211
    9TRP     CA 4865   6.654   8.433   3.044
    9TRP     HA 4866   6.719   8.386   2.970
    9TRP     CB 4867   6.563   8.317   3.090
    9TRP    HB2 4868   6.618   8.237   3.140
    9TRP    HB3 4869   6.489   8.357   3.160
    9TRP     CG 4870   6.485   8.245   2.985
    9TRP    CD1 4871   6.349   8.241   2.972
    9TRP    HD1 4872   6.279   8.281   3.045
    9TRP    NE1 4873   6.313   8.153   2.870
    9TRP    HE1 4874   6.221   8.113   2.857
    9TRP    CE2 4875   6.427   8.113   2.798
    9TRP    CZ2 4876   6.445   8.041   2.680
    9TRP    HZ2 4877   6.362   7.998   2.626
    9TRP    CH2 4878   6.573   8.028   2.632
    9TRP    HH2 4879   6.585   7.970   2.541
    9TRP    CZ3 4880   6.680   8.068   2.705
    9TRP    HZ3 4881   6.776   8.064   2.656
    9TRP    CE3 4882   6.667   8.138   2.824
    9TRP    HE3 4883   6.757   8.171   2.873
    9TRP    CD2 4884   6.536   8.165   2.873
    9TRP      C 4885   6.584   8.546   2.969
    9TRP      O 4886   6.545   8.638   3.031
   10ARG      N 4887   6.551   8.519   2.844
   10ARG      H 4888   6.545   8.420   2.824
   10ARG     CA 4889   6.467   8.604   2.757
   10ARG     HA 4890   6.505   8.706   2.761
   10ARG     CB 4891   6.462   8.563   2.607
   10ARG    HB2 4892   6.387   8.486   2.587
   10ARG    HB3 4893   6.440   8.654   2.550
   10ARG     CG 4894   6.591   8.501   2.556
   10ARG    HG2 4895   6.680   8.560   2.574
   10ARG    HG3 4896   6.603   8.406   2.606
   10ARG     CD 4897   6.590   8.471   2.407
   10ARG    HD2 4898   6.494   8.425   2.388
   10ARG    HD3 4899   6.573   8.563   2.350
   10ARG     NE 4900   6.716   8.393   2.372
   10ARG     HE 4901   6.805   8.429   2.399
   10ARG     CZ 4902   6.721   8.277   2.321
   10ARG    NH1 4903   6.614   8.203   2.296
   10ARG   HH11 4904   6.522   8.238   2.316
   10ARG   HH12 4905   6.630   8.120   2.241
   10ARG    NH2 4906   6.834   8.221   2.288
   10ARG   HH21 4907   6.903   8.235   2.360
   10ARG   HH22 4908   6.819   8.128   2.253
   10ARG      C 4909   6.325   8.626   2.813
   10ARG      O 4910   6.271   8.547   2.889
   11ARG      N 4911   6.265   8.740   2.777
   11ARG      H 4912   6.311   8.786   2.700
   11ARG     CA 4913   6.132   8.791   2.817
   11ARG     HA 4914   6.054   8.715   2.822
   11ARG     CB 4915   6.132   8.867   2.954
   11ARG    HB2 4916   6.219   8.930   2.973
   11ARG    HB3 4917   6.047   8.932   2.975
   11ARG     CG 4918   6.140   8.770   3.072
   11ARG    HG2 4919   6.047   8.712   3.078
   11ARG    HG3 4920   6.222   8.699   3.066
   11ARG     CD 4921   6.159   8.849   3.200
   11ARG    HD2 4922   6.181   8.778   3.279
   11ARG    HD3 4923   6.251   8.909   3.196
   11ARG     NE 4924   6.039   8.934   3.231
   11ARG     HE 4925   6.048   9.021   3.179
   11ARG     CZ 4926   5.919   8.887   3.264
   11ARG    NH1 4927   5.910   8.765   3.311
   11ARG   HH11 4928   5.998   8.716   3.319
   11ARG   HH12 4929   5.820   8.734   3.345
   11ARG    NH2 4930   5.814   8.957   3.258
   11ARG   HH21 4931   5.815   9.055   3.232
   11ARG   HH22 4932   5.728   8.905   3.261
   11ARG      C 4933   6.092   8.896   2.716
   11ARG      O 4934   6.170   8.951   2.641
   12LYS      N 4935   5.959   8.917   2.712
   12LYS      H 4936   5.908   8.881   2.791
   12LYS     CA 4937   5.890   9.017   2.629
   12LYS     HA 4938   5.962   9.094   2.601
   12LYS     CB 4939   5.835   8.951   2.499
   12LYS    HB2 4940   5.760   8.883   2.538
   12LYS    HB3 4941   5.783   9.029   2.443
   12LYS     CG 4942   5.933   8.877   2.406
   12LYS    HG2 4943   6.017   8.944   2.390
   12LYS    HG3 4944   5.985   8.796   2.457
   12LYS     CD 4945   5.874   8.822   2.275
   12LYS    HD2 4946   5.822   8.912   2.242
   12LYS    HD3 4947   5.951   8.790   2.205
   12LYS     CE 4948   5.759   8.723   2.294
   12LYS    HE2 4949   5.789   8.630   2.341
   12LYS    HE3 4950   5.684   8.760   2.362
   12LYS     NZ 4951   5.691   8.713   2.164
   12LYS    HZ1 4952   5.744   8.652   2.102
   12LYS    HZ2 4953   5.605   8.662   2.177
   12LYS    HZ3 4954   5.664   8.803   2.127
   12LYS      C 4955   5.775   9.095   2.703
   12LYS      O 4956   5.720   9.041   2.797
   13NHE      N 4957   5.732   9.205   2.649
   13NHE    HN1 4958   5.789   9.240   2.571
   13NHE    HN2 4959   5.655   9.251   2.691
    1ILE      N 4960   8.908   9.399   8.640
    1ILE     H1 4961   8.923   9.437   8.547
    1ILE     H2 4962   8.995   9.380   8.687
    1ILE     H3 4963   8.863   9.463   8.703
    1ILE     CA 4964   8.832   9.272   8.626
    1ILE     HA 4965   8.829   9.224   8.724
    1ILE     CB 4966   8.685   9.288   8.590
    1ILE     HB 4967   8.648   9.185   8.585
    1ILE    CG2 4968   8.620   9.355   8.711
    1ILE   HG21 4969   8.635   9.462   8.728
    1ILE   HG22 4970   8.512   9.353   8.705
    1ILE   HG23 4971   8.637   9.294   8.801
    1ILE    CG1 4972   8.665   9.369   8.462
    1ILE   HG12 4973   8.738   9.341   8.387
    1ILE   HG13 4974   8.663   9.477   8.481
    1ILE    CD1 4975   8.533   9.317   8.405
    1ILE   HD11 4976   8.512   9.358   8.305
    1ILE   HD12 4977   8.541   9.209   8.399
    1ILE   HD13 4978   8.448   9.345   8.465
    1ILE      C 4979   8.908   9.174   8.540
    1ILE      O 4980   8.975   9.222   8.444
    2LEU      N 4981   8.891   9.044   8.569
    2LEU      H 4982   8.823   9.025   8.640
    2LEU     CA 4983   8.955   8.937   8.491
    2LEU     HA 4984   9.057   8.968   8.470
    2LEU     CB 4985   8.954   8.804   8.573
    2LEU    HB2 4986   8.851   8.776   8.595
    2LEU    HB3 4987   9.003   8.722   8.521
    2LEU     CG 4988   9.013   8.813   8.713
    2LEU     HG 4989   8.972   8.883   8.785
    2LEU    CD1 4990   9.012   8.674   8.777
    2LEU   HD11 4991   9.049   8.593   8.714
    2LEU   HD12 4992   9.072   8.686   8.868
    2LEU   HD13 4993   8.917   8.643   8.820
    2LEU    CD2 4994   9.157   8.861   8.693
    2LEU   HD21 4995   9.152   8.968   8.672
    2LEU   HD22 4996   9.209   8.841   8.787
    2LEU   HD23 4997   9.210   8.803   8.617
    2LEU      C 4998   8.880   8.920   8.355
    2LEU      O 4999   8.761   8.942   8.347
    3ARG      N 5000   8.948   8.885   8.244
    3ARG      H 5001   9.048   8.880   8.251
    3ARG     CA 5002   8.886   8.858   8.113
    3ARG     HA 5003   8.796   8.919   8.117
    3ARG     CB 5004   8.980   8.919   8.009
    3ARG    HB2 5005   9.072   8.862   8.009
    3ARG    HB3 5006   8.932   8.915   7.912
    3ARG     CG 5007   9.012   9.069   8.022
    3ARG    HG2 5008   9.077   9.086   8.108
    3ARG    HG3 5009   9.081   9.095   7.940
    3ARG     CD 5010   8.893   9.167   8.024
    3ARG    HD2 5011   8.842   9.170   7.927
    3ARG    HD3 5012   8.808   9.142   8.087
    3ARG     NE 5013   8.932   9.314   8.045
    3ARG     HE 5014   9.028   9.337   8.030
    3ARG     CZ 5015   8.847   9.411   8.075
    3ARG    NH1 5016   8.723   9.388   8.105
    3ARG   HH11 5017   8.684   9.302   8.071
    3ARG   HH12 5018   8.672   9.471   8.131
    3ARG    NH2 5019   8.893   9.532   8.070
    3ARG   HH21 5020   8.992   9.549   8.058
    3ARG   HH22 5021   8.839   9.597   8.124
    3ARG      C 5022   8.827   8.717   8.093
    3ARG      O 5023   8.772   8.690   7.986
    4TRP      N 5024   8.824   8.637   8.201
    4TRP      H 5025   8.845   8.682   8.289
    4TRP     CA 5026   8.742   8.512   8.204
    4TRP     HA 5027   8.688   8.505   8.109
    4TRP     CB 5028   8.842   8.395   8.213
    4TRP    HB2 5029   8.793   8.304   8.246
    4TRP    HB3 5030   8.875   8.370   8.111
    4TRP     CG 5031   8.964   8.417   8.316
    4TRP    CD1 5032   8.941   8.409   8.452
    4TRP    HD1 5033   8.846   8.411   8.503
    4TRP    NE1 5034   9.062   8.414   8.515
    4TRP    HE1 5035   9.084   8.393   8.612
    4TRP    CE2 5036   9.170   8.434   8.427
    4TRP    CZ2 5037   9.307   8.457   8.434
    4TRP    HZ2 5038   9.357   8.463   8.529
    4TRP    CH2 5039   9.389   8.475   8.322
    4TRP    HH2 5040   9.496   8.485   8.329
    4TRP    CZ3 5041   9.328   8.478   8.193
    4TRP    HZ3 5042   9.378   8.502   8.100
    4TRP    CE3 5043   9.189   8.460   8.187
    4TRP    HE3 5044   9.138   8.449   8.093
    4TRP    CD2 5045   9.107   8.434   8.299
    4TRP      C 5046   8.629   8.519   8.316
    4TRP      O 5047   8.642   8.599   8.406
    5PRO      N 5048   8.520   8.436   8.306
    5PRO     CD 5049   8.485   8.345   8.203
    5PRO    HD2 5050   8.568   8.280   8.173
    5PRO    HD3 5051   8.453   8.399   8.114
    5PRO     CG 5052   8.368   8.262   8.254
    5PRO    HG2 5053   8.408   8.180   8.314
    5PRO    HG3 5054   8.300   8.228   8.176
    5PRO     CB 5055   8.299   8.357   8.365
    5PRO    HB2 5056   8.250   8.300   8.444
    5PRO    HB3 5057   8.236   8.428   8.311
    5PRO     CA 5058   8.423   8.439   8.420
    5PRO     HA 5059   8.393   8.543   8.428
    5PRO      C 5060   8.484   8.388   8.549
    5PRO      O 5061   8.541   8.278   8.557
    6TRP      N 5062   8.463   8.471   8.649
    6TRP      H 5063   8.409   8.554   8.631
    6TRP     CA 5064   8.518   8.456   8.788
    6TRP     HA 5065   8.603   8.388   8.777
    6TRP     CB 5066   8.591   8.580   8.841
    6TRP    HB2 5067   8.678   8.602   8.779
    6TRP    HB3 5068   8.522   8.664   8.843
    6TRP     CG 5069   8.631   8.554   8.983
    6TRP    CD1 5070   8.580   8.624   9.090
    6TRP    HD1 5071   8.500   8.696   9.085
    6TRP    NE1 5072   8.629   8.578   9.202
    6TRP    HE1 5073   8.619   8.620   9.293
    6TRP    CE2 5074   8.726   8.483   9.175
    6TRP    CZ2 5075   8.809   8.404   9.263
    6TRP    HZ2 5076   8.822   8.415   9.371
    6TRP    CH2 5077   8.894   8.306   9.210
    6TRP    HH2 5078   8.959   8.246   9.272
    6TRP    CZ3 5079   8.899   8.290   9.073
    6TRP    HZ3 5080   8.974   8.228   9.026
    6TRP    CE3 5081   8.811   8.357   8.992
    6TRP    HE3 5082   8.836   8.351   8.887
    6TRP    CD2 5083   8.723   8.458   9.036
    6TRP      C 5084   8.415   8.407   8.890
    6TRP      O 5085   8.314   8.471   8.913
    7TRP      N 5086   8.438   8.290   8.954
    7TRP      H 5087   8.514   8.234   8.917
    7TRP     CA 5088   8.366   8.261   9.076
    7TRP     HA 5089   8.299   8.341   9.108
    7TRP     CB 5090   8.270   8.148   9.040
    7TRP    HB2 5091   8.211   8.166   8.951
    7TRP    HB3 5092   8.327   8.056   9.022
    7TRP     CG 5093   8.177   8.114   9.146
    7TRP    CD1 5094   8.144   7.994   9.187
    7TRP    HD1 5095   8.192   7.904   9.149
    7TRP    NE1 5096   8.051   8.004   9.287
    7TRP    HE1 5097   8.014   7.927   9.340
    7TRP    CE2 5098   8.001   8.134   9.305
    7TRP    CZ2 5099   7.897   8.188   9.386
    7TRP    HZ2 5100   7.841   8.124   9.453
    7TRP    CH2 5101   7.863   8.324   9.365
    7TRP    HH2 5102   7.772   8.361   9.410
    7TRP    CZ3 5103   7.925   8.394   9.257
    7TRP    HZ3 5104   7.885   8.489   9.227
    7TRP    CE3 5105   8.035   8.339   9.187
    7TRP    HE3 5106   8.076   8.393   9.103
    7TRP    CD2 5107   8.076   8.205   9.207
    7TRP      C 5108   8.466   8.230   9.186
    7TRP      O 5109   8.554   8.150   9.166
    8PRO      N 5110   8.444   8.281   9.309
    8PRO     CD 5111   8.367   8.402   9.346
    8PRO    HD2 5112   8.268   8.368   9.378
    8PRO    HD3 5113   8.366   8.470   9.261
    8PRO     CG 5114   8.432   8.454   9.474
    8PRO    HG2 5115   8.353   8.516   9.517
    8PRO    HG3 5116   8.523   8.511   9.452
    8PRO     CB 5117   8.474   8.326   9.546
    8PRO    HB2 5118   8.389   8.279   9.593
    8PRO    HB3 5119   8.555   8.354   9.612
    8PRO     CA 5120   8.521   8.244   9.427
    8PRO     HA 5121   8.626   8.264   9.404
    8PRO      C 5122   8.515   8.093   9.470
    8PRO      O 5123   8.575   8.052   9.569
    9TRP      N 5124   8.461   8.004   9.386
    9TRP      H 5125   8.420   8.038   9.301
    9TRP     CA 5126   8.460   7.857   9.399
    9TRP     HA 5127   8.537   7.814   9.462
    9TRP     CB 5128   8.329   7.825   9.475
    9TRP    HB2 5129   8.323   7.872   9.573
    9TRP    HB3 5130   8.245   7.858   9.414
    9TRP     CG 5131   8.302   7.681   9.505
    9TRP    CD1 5132   8.199   7.605   9.456
    9TRP    HD1 5133   8.117   7.643   9.398
    9TRP    NE1 5134   8.200   7.479   9.518
    9TRP    HE1 5135   8.122   7.415   9.519
    9TRP    CE2 5136   8.317   7.462   9.593
    9TRP    CZ2 5137   8.374   7.353   9.659
    9TRP    HZ2 5138   8.323   7.257   9.664
    9TRP    CH2 5139   8.497   7.369   9.716
    9TRP    HH2 5140   8.537   7.283   9.769
    9TRP    CZ3 5141   8.555   7.492   9.724
    9TRP    HZ3 5142   8.656   7.495   9.762
    9TRP    CE3 5143   8.501   7.604   9.663
    9TRP    HE3 5144   8.556   7.696   9.669
    9TRP    CD2 5145   8.379   7.590   9.591
    9TRP      C 5146   8.476   7.789   9.264
    9TRP      O 5147   8.439   7.846   9.168
   10ARG      N 5148   8.509   7.661   9.268
   10ARG      H 5149   8.486   7.617   9.356
   10ARG     CA 5150   8.513   7.569   9.152
   10ARG     HA 5151   8.570   7.616   9.073
   10ARG     CB 5152   8.577   7.430   9.179
   10ARG    HB2 5153   8.505   7.358   9.220
   10ARG    HB3 5154   8.616   7.395   9.083
   10ARG     CG 5155   8.689   7.432   9.282
   10ARG    HG2 5156   8.767   7.505   9.262
   10ARG    HG3 5157   8.644   7.457   9.377
   10ARG     CD 5158   8.758   7.299   9.299
   10ARG    HD2 5159   8.679   7.225   9.305
   10ARG    HD3 5160   8.801   7.266   9.204
   10ARG     NE 5161   8.854   7.309   9.417
   10ARG     HE 5162   8.921   7.383   9.420
   10ARG     CZ 5163   8.852   7.239   9.523
   10ARG    NH1 5164   8.759   7.148   9.549
   10ARG   HH11 5165   8.685   7.131   9.483
   10ARG   HH12 5166   8.776   7.089   9.628
   10ARG    NH2 5167   8.943   7.251   9.615
   10ARG   HH21 5168   8.964   7.348   9.633
   10ARG   HH22 5169   8.923   7.190   9.693
   10ARG      C 5170   8.376   7.555   9.082
   10ARG      O 5171   8.270   7.574   9.139
   11ARG      N 5172   8.381   7.525   8.952
   11ARG      H 5173   8.472   7.493   8.922
   11ARG     CA 5174   8.269   7.509   8.857
   11ARG     HA 5175   8.182   7.457   8.897
   11ARG     CB 5176   8.217   7.644   8.795
   11ARG    HB2 5177   8.295   7.717   8.771
   11ARG    HB3 5178   8.158   7.638   8.704
   11ARG     CG 5179   8.133   7.723   8.895
   11ARG    HG2 5180   8.040   7.670   8.914
   11ARG    HG3 5181   8.182   7.740   8.991
   11ARG     CD 5182   8.104   7.860   8.837
   11ARG    HD2 5183   8.059   7.919   8.917
   11ARG    HD3 5184   8.196   7.915   8.817
   11ARG     NE 5185   8.016   7.851   8.715
   11ARG     HE 5186   8.076   7.833   8.635
   11ARG     CZ 5187   7.889   7.810   8.716
   11ARG    NH1 5188   7.822   7.815   8.828
   11ARG   HH11 5189   7.873   7.851   8.907
   11ARG   HH12 5190   7.724   7.794   8.825
   11ARG    NH2 5191   7.830   7.773   8.611
   11ARG   HH21 5192   7.873   7.776   8.519
   11ARG   HH22 5193   7.744   7.722   8.627
   11ARG      C 5194   8.321   7.431   8.738
   11ARG      O 5195   8.438   7.419   8.712
   12LYS      N 5196   8.224   7.370   8.668
   12LYS      H 5197   8.130   7.405   8.687
   12LYS     CA 5198   8.242   7.293   8.544
   12LYS     HA 5199   8.336   7.323   8.498
   12LYS     CB 5200   8.247   7.141   8.576
   12LYS    HB2 5201   8.147   7.121   8.613
   12LYS    HB3 5202   8.259   7.089   8.481
   12LYS     CG 5203   8.354   7.090   8.676
   12LYS    HG2 5204   8.449   7.133   8.645
   12LYS    HG3 5205   8.344   7.137   8.773
   12LYS     CD 5206   8.360   6.937   8.696
   12LYS    HD2 5207   8.363   6.907   8.591
   12LYS    HD3 5208   8.450   6.906   8.750
   12LYS     CE 5209   8.230   6.874   8.746
   12LYS    HE2 5210   8.201   6.905   8.846
   12LYS    HE3 5211   8.144   6.906   8.687
   12LYS     NZ 5212   8.242   6.729   8.720
   12LYS    HZ1 5213   8.299   6.687   8.792
   12LYS    HZ2 5214   8.151   6.687   8.735
   12LYS    HZ3 5215   8.266   6.708   8.625
   12LYS      C 5216   8.133   7.320   8.434
   12LYS      O 5217   8.024   7.361   8.468
   13NHE      N 5218   8.160   7.282   8.313
   13NHE    HN1 5219   8.256   7.252   8.297
   13NHE    HN2 5220   8.089   7.293   8.243
    1ILE      N 5221   5.928   4.571   9.526
    1ILE     H1 5222   5.932   4.529   9.618
    1ILE     H2 5223   5.877   4.515   9.460
    1ILE     H3 5224   5.878   4.659   9.525
    1ILE     CA 5225   6.067   4.588   9.476
    1ILE     HA 5226   6.062   4.621   9.372
    1ILE     CB 5227   6.148   4.698   9.545
    1ILE     HB 5228   6.245   4.693   9.494
    1ILE    CG2 5229   6.080   4.829   9.503
    1ILE   HG21 5230   5.987   4.858   9.551
    1ILE   HG22 5231   6.141   4.915   9.530
    1ILE   HG23 5232   6.078   4.837   9.395
    1ILE    CG1 5233   6.153   4.681   9.696
    1ILE   HG12 5234   6.168   4.577   9.722
    1ILE   HG13 5235   6.067   4.725   9.747
    1ILE    CD1 5236   6.285   4.747   9.736
    1ILE   HD11 5237   6.309   4.731   9.842
    1ILE   HD12 5238   6.363   4.703   9.674
    1ILE   HD13 5239   6.283   4.854   9.724
    1ILE      C 5240   6.136   4.454   9.469
    1ILE      O 5241   6.107   4.369   9.558
    2LEU      N 5242   6.229   4.440   9.373
    2LEU      H 5243   6.248   4.523   9.320
    2LEU     CA 5244   6.308   4.317   9.356
    2LEU     HA 5245   6.240   4.233   9.369
    2LEU     CB 5246   6.371   4.314   9.213
    2LEU    HB2 5247   6.436   4.400   9.200
    2LEU    HB3 5248   6.428   4.223   9.194
    2LEU     CG 5249   6.274   4.333   9.098
    2LEU     HG 5250   6.213   4.422   9.092
    2LEU    CD1 5251   6.348   4.319   8.966
    2LEU   HD11 5252   6.416   4.234   8.958
    2LEU   HD12 5253   6.269   4.315   8.890
    2LEU   HD13 5254   6.402   4.408   8.933
    2LEU    CD2 5255   6.171   4.219   9.112
    2LEU   HD21 5256   6.104   4.247   9.194
    2LEU   HD22 5257   6.118   4.213   9.017
    2LEU   HD23 5258   6.219   4.122   9.126
    2LEU      C 5259   6.418   4.311   9.467
    2LEU      O 5260   6.467   4.413   9.511
    3ARG      N 5261   6.456   4.192   9.518
    3ARG      H 5262   6.403   4.111   9.489
    3ARG     CA 5263   6.564   4.174   9.616
    3ARG     HA 5264   6.564   4.269   9.668
    3ARG     CB 5265   6.514   4.068   9.714
    3ARG    HB2 5266   6.508   3.973   9.661
    3ARG    HB3 5267   6.585   4.061   9.797
    3ARG     CG 5268   6.382   4.094   9.787
    3ARG    HG2 5269   6.299   4.086   9.717
    3ARG    HG3 5270   6.362   4.008   9.852
    3ARG     CD 5271   6.371   4.225   9.869
    3ARG    HD2 5272   6.437   4.223   9.956
    3ARG    HD3 5273   6.406   4.317   9.822
    3ARG     NE 5274   6.234   4.250   9.932
    3ARG     HE 5275   6.172   4.170   9.938
    3ARG     CZ 5276   6.194   4.364   9.984
    3ARG    NH1 5277   6.263   4.473   9.972
    3ARG   HH11 5278   6.361   4.463   9.955
    3ARG   HH12 5279   6.217   4.555  10.012
    3ARG    NH2 5280   6.082   4.362  10.050
    3ARG   HH21 5281   6.023   4.280  10.050
    3ARG   HH22 5282   6.040   4.453  10.059
    3ARG      C 5283   6.707   4.169   9.559
    3ARG      O 5284   6.802   4.156   9.638
    4TRP      N 5285   6.721   4.196   9.428
    4TRP      H 5286   6.640   4.234   9.383
    4TRP     CA 5287   6.855   4.226   9.368
    4TRP     HA 5288   6.929   4.224   9.449
    4TRP     CB 5289   6.885   4.109   9.271
    4TRP    HB2 5290   6.963   4.137   9.201
    4TRP    HB3 5291   6.930   4.028   9.328
    4TRP     CG 5292   6.761   4.064   9.179
    4TRP    CD1 5293   6.720   4.143   9.073
    4TRP    HD1 5294   6.747   4.246   9.055
    4TRP    NE1 5295   6.626   4.073   9.003
    4TRP    HE1 5296   6.588   4.093   8.911
    4TRP    CE2 5297   6.593   3.950   9.061
    4TRP    CZ2 5298   6.501   3.847   9.042
    4TRP    HZ2 5299   6.430   3.852   8.961
    4TRP    CH2 5300   6.493   3.733   9.122
    4TRP    HH2 5301   6.427   3.651   9.101
    4TRP    CZ3 5302   6.578   3.725   9.236
    4TRP    HZ3 5303   6.574   3.648   9.312
    4TRP    CE3 5304   6.666   3.831   9.259
    4TRP    HE3 5305   6.742   3.826   9.336
    4TRP    CD2 5306   6.680   3.943   9.173
    4TRP      C 5307   6.861   4.373   9.309
    4TRP      O 5308   6.756   4.429   9.284
    5PRO      N 5309   6.983   4.433   9.289
    5PRO     CD 5310   7.112   4.385   9.322
    5PRO    HD2 5311   7.130   4.282   9.290
    5PRO    HD3 5312   7.128   4.387   9.429
    5PRO     CG 5313   7.214   4.479   9.256
    5PRO    HG2 5314   7.227   4.447   9.153
    5PRO    HG3 5315   7.308   4.488   9.311
    5PRO     CB 5316   7.132   4.617   9.241
    5PRO    HB2 5317   7.165   4.676   9.157
    5PRO    HB3 5318   7.136   4.667   9.338
    5PRO     CA 5319   6.983   4.566   9.223
    5PRO     HA 5320   6.919   4.628   9.284
    5PRO      C 5321   6.933   4.559   9.079
    5PRO      O 5322   6.981   4.481   8.996
    6TRP      N 5323   6.840   4.649   9.056
    6TRP      H 5324   6.815   4.712   9.130
    6TRP     CA 5325   6.763   4.663   8.928
    6TRP     HA 5326   6.773   4.567   8.878
    6TRP     CB 5327   6.611   4.667   8.946
    6TRP    HB2 5328   6.575   4.573   8.990
    6TRP    HB3 5329   6.584   4.752   9.009
    6TRP     CG 5330   6.547   4.692   8.812
    6TRP    CD1 5331   6.477   4.805   8.781
    6TRP    HD1 5332   6.468   4.892   8.845
    6TRP    NE1 5333   6.437   4.803   8.657
    6TRP    HE1 5334   6.372   4.866   8.614
    6TRP    CE2 5335   6.468   4.680   8.601
    6TRP    CZ2 5336   6.445   4.627   8.468
    6TRP    HZ2 5337   6.384   4.669   8.389
    6TRP    CH2 5338   6.495   4.500   8.434
    6TRP    HH2 5339   6.479   4.457   8.337
    6TRP    CZ3 5340   6.563   4.428   8.529
    6TRP    HZ3 5341   6.590   4.324   8.514
    6TRP    CE3 5342   6.595   4.484   8.651
    6TRP    HE3 5343   6.631   4.413   8.723
    6TRP    CD2 5344   6.548   4.610   8.695
    6TRP      C 5345   6.809   4.781   8.840
    6TRP      O 5346   6.805   4.895   8.882
    7TRP      N 5347   6.856   4.754   8.717
    7TRP      H 5348   6.873   4.656   8.696
    7TRP     CA 5349   6.862   4.860   8.619
    7TRP     HA 5350   6.825   4.956   8.656
    7TRP     CB 5351   7.011   4.888   8.599
    7TRP    HB2 5352   7.067   4.901   8.692
    7TRP    HB3 5353   7.057   4.803   8.547
    7TRP     CG 5354   7.040   5.003   8.516
    7TRP    CD1 5355   7.127   5.011   8.418
    7TRP    HD1 5356   7.185   4.925   8.385
    7TRP    NE1 5357   7.125   5.138   8.366
    7TRP    HE1 5358   7.179   5.168   8.287
    7TRP    CE2 5359   7.048   5.229   8.441
    7TRP    CZ2 5360   7.028   5.369   8.431
    7TRP    HZ2 5361   7.077   5.426   8.353
    7TRP    CH2 5362   6.954   5.431   8.536
    7TRP    HH2 5363   6.956   5.539   8.542
    7TRP    CZ3 5364   6.918   5.351   8.649
    7TRP    HZ3 5365   6.881   5.401   8.738
    7TRP    CE3 5366   6.930   5.211   8.648
    7TRP    HE3 5367   6.905   5.155   8.736
    7TRP    CD2 5368   6.999   5.144   8.544
    7TRP      C 5369   6.786   4.819   8.495
    7TRP      O 5370   6.807   4.712   8.444
    8PRO      N 5371   6.707   4.910   8.435
    8PRO     CD 5372   6.642   5.030   8.493
    8PRO    HD2 5373   6.705   5.115   8.469
    8PRO    HD3 5374   6.629   5.013   8.601
    8PRO     CG 5375   6.514   5.052   8.412
    8PRO    HG2 5376   6.492   5.157   8.432
    8PRO    HG3 5377   6.435   4.985   8.446
    8PRO     CB 5378   6.556   5.010   8.272
    8PRO    HB2 5379   6.615   5.087   8.224
    8PRO    HB3 5380   6.465   4.983   8.221
    8PRO     CA 5381   6.643   4.890   8.305
    8PRO     HA 5382   6.583   4.799   8.313
    8PRO      C 5383   6.739   4.867   8.183
    8PRO      O 5384   6.695   4.850   8.069
    9TRP      N 5385   6.869   4.844   8.205
    9TRP      H 5386   6.902   4.849   8.300
    9TRP     CA 5387   6.972   4.805   8.108
    9TRP     HA 5388   6.936   4.757   8.017
    9TRP     CB 5389   7.032   4.937   8.057
    9TRP    HB2 5390   6.958   5.003   8.011
    9TRP    HB3 5391   7.077   4.989   8.141
    9TRP     CG 5392   7.139   4.928   7.953
    9TRP    CD1 5393   7.270   4.966   7.966
    9TRP    HD1 5394   7.310   5.020   8.052
    9TRP    NE1 5395   7.335   4.955   7.844
    9TRP    HE1 5396   7.423   4.999   7.820
    9TRP    CE2 5397   7.254   4.887   7.751
    9TRP    CZ2 5398   7.277   4.836   7.623
    9TRP    HZ2 5399   7.371   4.850   7.573
    9TRP    CH2 5400   7.176   4.766   7.563
    9TRP    HH2 5401   7.195   4.730   7.463
    9TRP    CZ3 5402   7.052   4.761   7.618
    9TRP    HZ3 5403   6.981   4.695   7.571
    9TRP    CE3 5404   7.023   4.812   7.744
    9TRP    HE3 5405   6.924   4.798   7.783
    9TRP    CD2 5406   7.129   4.875   7.816
    9TRP      C 5407   7.071   4.707   8.169
    9TRP      O 5408   7.090   4.711   8.285
   10ARG      N 5409   7.147   4.641   8.083
   10ARG      H 5410   7.154   4.687   7.993
   10ARG     CA 5411   7.262   4.555   8.117
   10ARG     HA 5412   7.231   4.486   8.195
   10ARG     CB 5413   7.319   4.470   8.000
   10ARG    HB2 5414   7.392   4.526   7.939
   10ARG    HB3 5415   7.366   4.383   8.045
   10ARG     CG 5416   7.215   4.426   7.898
   10ARG    HG2 5417   7.129   4.375   7.941
   10ARG    HG3 5418   7.180   4.514   7.848
   10ARG     CD 5419   7.270   4.334   7.791
   10ARG    HD2 5420   7.363   4.379   7.759
   10ARG    HD3 5421   7.312   4.244   7.836
   10ARG     NE 5422   7.162   4.312   7.686
   10ARG     HE 5423   7.071   4.282   7.715
   10ARG     CZ 5424   7.169   4.341   7.562
   10ARG    NH1 5425   7.273   4.402   7.507
   10ARG   HH11 5426   7.353   4.427   7.564
   10ARG   HH12 5427   7.274   4.406   7.407
   10ARG    NH2 5428   7.073   4.313   7.479
   10ARG   HH21 5429   6.983   4.334   7.519
   10ARG   HH22 5430   7.094   4.346   7.387
   10ARG      C 5431   7.374   4.631   8.191
   10ARG      O 5432   7.391   4.751   8.179
   11ARG      N 5433   7.449   4.557   8.273
   11ARG      H 5434   7.438   4.458   8.258
   11ARG     CA 5435   7.561   4.601   8.360
   11ARG     HA 5436   7.627   4.675   8.315
   11ARG     CB 5437   7.515   4.658   8.499
   11ARG    HB2 5438   7.431   4.605   8.545
   11ARG    HB3 5439   7.590   4.663   8.578
   11ARG     CG 5440   7.458   4.799   8.485
   11ARG    HG2 5441   7.538   4.868   8.459
   11ARG    HG3 5442   7.379   4.809   8.411
   11ARG     CD 5443   7.397   4.840   8.618
   11ARG    HD2 5444   7.343   4.933   8.601
   11ARG    HD3 5445   7.317   4.772   8.648
   11ARG     NE 5446   7.502   4.853   8.725
   11ARG     HE 5447   7.518   4.761   8.765
   11ARG     CZ 5448   7.598   4.945   8.727
   11ARG    NH1 5449   7.582   5.054   8.656
   11ARG   HH11 5450   7.494   5.060   8.606
   11ARG   HH12 5451   7.650   5.127   8.667
   11ARG    NH2 5452   7.702   4.934   8.798
   11ARG   HH21 5453   7.716   4.857   8.862
   11ARG   HH22 5454   7.777   4.996   8.773
   11ARG      C 5455   7.642   4.478   8.394
   11ARG      O 5456   7.601   4.365   8.383
   12LYS      N 5457   7.767   4.507   8.432
   12LYS      H 5458   7.783   4.604   8.457
   12LYS     CA 5459   7.868   4.410   8.478
   12LYS     HA 5460   7.817   4.320   8.513
   12LYS     CB 5461   7.964   4.372   8.362
   12LYS    HB2 5462   8.015   4.466   8.342
   12LYS    HB3 5463   8.037   4.302   8.402
   12LYS     CG 5464   7.903   4.314   8.232
   12LYS    HG2 5465   7.835   4.235   8.262
   12LYS    HG3 5466   7.831   4.381   8.187
   12LYS     CD 5467   8.003   4.269   8.124
   12LYS    HD2 5468   8.069   4.209   8.187
   12LYS    HD3 5469   7.956   4.211   8.045
   12LYS     CE 5470   8.096   4.380   8.075
   12LYS    HE2 5471   8.046   4.459   8.021
   12LYS    HE3 5472   8.143   4.433   8.156
   12LYS     NZ 5473   8.208   4.312   8.005
   12LYS    HZ1 5474   8.178   4.285   7.912
   12LYS    HZ2 5475   8.280   4.381   7.987
   12LYS    HZ3 5476   8.252   4.241   8.062
   12LYS      C 5477   7.952   4.457   8.603
   12LYS      O 5478   7.965   4.577   8.623
   13NHE      N 5479   8.018   4.367   8.669
   13NHE    HN1 5480   7.997   4.271   8.643
   13NHE    HN2 5481   8.078   4.397   8.743
    1ILE      N 5482   3.647  10.434   6.309
    1ILE     H1 5483   3.677  10.490   6.231
    1ILE     H2 5484   3.550  10.449   6.331
    1ILE     H3 5485   3.651  10.335   6.292
    1ILE     CA 5486   3.729  10.471   6.428
    1ILE     HA 5487   3.687  10.421   6.515
    1ILE     CB 5488   3.874  10.423   6.425
    1ILE     HB 5489   3.915  10.460   6.519
    1ILE    CG2 5490   3.865  10.270   6.435
    1ILE   HG21 5491   3.837  10.212   6.348
    1ILE   HG22 5492   3.963  10.226   6.454
    1ILE   HG23 5493   3.811  10.242   6.526
    1ILE    CG1 5494   3.948  10.468   6.299
    1ILE   HG12 5495   3.924  10.570   6.275
    1ILE   HG13 5496   3.933  10.400   6.215
    1ILE    CD1 5497   4.094  10.475   6.343
    1ILE   HD11 5498   4.159  10.519   6.266
    1ILE   HD12 5499   4.098  10.536   6.433
    1ILE   HD13 5500   4.137  10.378   6.363
    1ILE      C 5501   3.712  10.618   6.459
    1ILE      O 5502   3.698  10.696   6.360
    2LEU      N 5503   3.723  10.654   6.587
    2LEU      H 5504   3.748  10.579   6.650
    2LEU     CA 5505   3.714  10.793   6.633
    2LEU     HA 5506   3.633  10.840   6.577
    2LEU     CB 5507   3.683  10.798   6.785
    2LEU    HB2 5508   3.764  10.748   6.839
    2LEU    HB3 5509   3.672  10.899   6.823
    2LEU     CG 5510   3.563  10.717   6.831
    2LEU     HG 5511   3.558  10.611   6.811
    2LEU    CD1 5512   3.542  10.738   6.981
    2LEU   HD11 5513   3.547  10.841   7.016
    2LEU   HD12 5514   3.444  10.692   7.001
    2LEU   HD13 5515   3.605  10.678   7.046
    2LEU    CD2 5516   3.444  10.775   6.753
    2LEU   HD21 5517   3.451  10.735   6.651
    2LEU   HD22 5518   3.354  10.739   6.804
    2LEU   HD23 5519   3.440  10.883   6.758
    2LEU      C 5520   3.847  10.867   6.598
    2LEU      O 5521   3.952  10.808   6.598
    3ARG      N 5522   3.845  10.998   6.565
    3ARG      H 5523   3.755  11.041   6.553
    3ARG     CA 5524   3.965  11.080   6.540
    3ARG     HA 5525   4.036  11.005   6.506
    3ARG     CB 5526   3.930  11.169   6.421
    3ARG    HB2 5527   3.854  11.240   6.452
    3ARG    HB3 5528   4.020  11.221   6.389
    3ARG     CG 5529   3.885  11.101   6.290
    3ARG    HG2 5530   3.786  11.059   6.304
    3ARG    HG3 5531   3.864  11.180   6.217
    3ARG     CD 5532   3.981  10.996   6.229
    3ARG    HD2 5533   4.072  11.043   6.192
    3ARG    HD3 5534   4.025  10.922   6.296
    3ARG     NE 5535   3.926  10.926   6.105
    3ARG     HE 5536   3.848  10.970   6.058
    3ARG     CZ 5537   3.978  10.817   6.050
    3ARG    NH1 5538   4.072  10.749   6.108
    3ARG   HH11 5539   4.129  10.798   6.174
    3ARG   HH12 5540   4.098  10.665   6.057
    3ARG    NH2 5541   3.931  10.782   5.934
    3ARG   HH21 5542   3.850  10.827   5.895
    3ARG   HH22 5543   3.947  10.685   5.913
    3ARG      C 5544   4.036  11.136   6.664
    3ARG      O 5545   4.139  11.204   6.648
    4TRP      N 5546   3.991  11.095   6.783
    4TRP      H 5547   3.927  11.017   6.781
    4TRP     CA 5548   4.070  11.116   6.909
    4TRP     HA 5549   4.164  11.165   6.881
    4TRP     CB 5550   3.987  11.214   6.995
    4TRP    HB2 5551   4.020  11.212   7.099
    4TRP    HB3 5552   4.011  11.316   6.964
    4TRP     CG 5553   3.829  11.183   7.001
    4TRP    CD1 5554   3.782  11.076   7.075
    4TRP    HD1 5555   3.840  10.994   7.114
    4TRP    NE1 5556   3.646  11.083   7.077
    4TRP    HE1 5557   3.581  11.032   7.135
    4TRP    CE2 5558   3.595  11.187   6.997
    4TRP    CZ2 5559   3.471  11.234   6.955
    4TRP    HZ2 5560   3.380  11.184   6.984
    4TRP    CH2 5561   3.453  11.345   6.873
    4TRP    HH2 5562   3.356  11.385   6.847
    4TRP    CZ3 5563   3.569  11.411   6.822
    4TRP    HZ3 5564   3.570  11.491   6.749
    4TRP    CE3 5565   3.694  11.361   6.861
    4TRP    HE3 5566   3.786  11.412   6.837
    4TRP    CD2 5567   3.712  11.253   6.951
    4TRP      C 5568   4.112  10.979   6.976
    4TRP      O 5569   4.050  10.879   6.945
    5PRO      N 5570   4.218  10.976   7.064
    5PRO     CD 5571   4.305  11.082   7.101
    5PRO    HD2 5572   4.253  11.174   7.128
    5PRO    HD3 5573   4.373  11.106   7.020
    5PRO     CG 5574   4.388  11.031   7.220
    5PRO    HG2 5575   4.330  11.046   7.311
    5PRO    HG3 5576   4.488  11.074   7.226
    5PRO     CB 5577   4.386  10.871   7.201
    5PRO    HB2 5578   4.394  10.818   7.296
    5PRO    HB3 5579   4.462  10.846   7.127
    5PRO     CA 5580   4.246  10.847   7.132
    5PRO     HA 5581   4.260  10.775   7.052
    5PRO      C 5582   4.132  10.805   7.225
    5PRO      O 5583   4.087  10.879   7.313
    6TRP      N 5584   4.096  10.680   7.202
    6TRP      H 5585   4.146  10.627   7.132
    6TRP     CA 5586   3.981  10.611   7.269
    6TRP     HA 5587   3.917  10.691   7.307
    6TRP     CB 5588   3.883  10.543   7.172
    6TRP    HB2 5589   3.836  10.618   7.108
    6TRP    HB3 5590   3.935  10.469   7.114
    6TRP     CG 5591   3.779  10.470   7.253
    6TRP    CD1 5592   3.766  10.334   7.251
    6TRP    HD1 5593   3.833  10.264   7.201
    6TRP    NE1 5594   3.671  10.295   7.333
    6TRP    HE1 5595   3.632  10.203   7.340
    6TRP    CE2 5596   3.608  10.407   7.385
    6TRP    CZ2 5597   3.498  10.419   7.478
    6TRP    HZ2 5598   3.433  10.340   7.516
    6TRP    CH2 5599   3.457  10.546   7.522
    6TRP    HH2 5600   3.375  10.559   7.591
    6TRP    CZ3 5601   3.522  10.657   7.472
    6TRP    HZ3 5602   3.484  10.757   7.489
    6TRP    CE3 5603   3.633  10.644   7.393
    6TRP    HE3 5604   3.664  10.735   7.345
    6TRP    CD2 5605   3.681  10.521   7.343
    6TRP      C 5606   4.023  10.512   7.378
    6TRP      O 5607   4.095  10.417   7.353
    7TRP      N 5608   3.981  10.533   7.505
    7TRP      H 5609   3.937  10.623   7.521
    7TRP     CA 5610   3.984  10.424   7.600
    7TRP     HA 5611   4.021  10.331   7.558
    7TRP     CB 5612   4.094  10.462   7.700
    7TRP    HB2 5613   4.188  10.492   7.654
    7TRP    HB3 5614   4.060  10.547   7.760
    7TRP     CG 5615   4.125  10.358   7.796
    7TRP    CD1 5616   4.141  10.372   7.925
    7TRP    HD1 5617   4.126  10.466   7.977
    7TRP    NE1 5618   4.172  10.250   7.980
    7TRP    HE1 5619   4.184  10.232   8.078
    7TRP    CE2 5620   4.197  10.150   7.885
    7TRP    CZ2 5621   4.244  10.015   7.895
    7TRP    HZ2 5622   4.265   9.972   7.992
    7TRP    CH2 5623   4.274   9.948   7.774
    7TRP    HH2 5624   4.328   9.855   7.780
    7TRP    CZ3 5625   4.269  10.023   7.652
    7TRP    HZ3 5626   4.312   9.979   7.563
    7TRP    CE3 5627   4.212  10.151   7.646
    7TRP    HE3 5628   4.213  10.205   7.553
    7TRP    CD2 5629   4.176  10.221   7.763
    7TRP      C 5630   3.846  10.405   7.659
    7TRP      O 5631   3.785  10.499   7.702
    8PRO      N 5632   3.801  10.278   7.675
    8PRO     CD 5633   3.841  10.156   7.603
    8PRO    HD2 5634   3.913  10.104   7.665
    8PRO    HD3 5635   3.879  10.185   7.504
    8PRO     CG 5636   3.717  10.065   7.603
    8PRO    HG2 5637   3.761   9.966   7.585
    8PRO    HG3 5638   3.646  10.095   7.526
    8PRO     CB 5639   3.655  10.095   7.739
    8PRO    HB2 5640   3.709  10.044   7.818
    8PRO    HB3 5641   3.550  10.069   7.731
    8PRO     CA 5642   3.679  10.245   7.747
    8PRO     HA 5643   3.597  10.300   7.699
    8PRO      C 5644   3.674  10.285   7.899
    8PRO      O 5645   3.576  10.260   7.969
    9TRP      N 5646   3.768  10.366   7.948
    9TRP      H 5647   3.843  10.393   7.887
    9TRP     CA 5648   3.774  10.428   8.081
    9TRP     HA 5649   3.679  10.438   8.133
    9TRP     CB 5650   3.852  10.328   8.169
    9TRP    HB2 5651   3.805  10.230   8.174
    9TRP    HB3 5652   3.952  10.318   8.128
    9TRP     CG 5653   3.871  10.365   8.313
    9TRP    CD1 5654   3.989  10.391   8.376
    9TRP    HD1 5655   4.087  10.377   8.331
    9TRP    NE1 5656   3.968  10.408   8.513
    9TRP    HE1 5657   4.039  10.403   8.584
    9TRP    CE2 5658   3.830  10.414   8.540
    9TRP    CZ2 5659   3.757  10.446   8.655
    9TRP    HZ2 5660   3.805  10.466   8.749
    9TRP    CH2 5661   3.620  10.452   8.644
    9TRP    HH2 5662   3.565  10.474   8.734
    9TRP    CZ3 5663   3.557  10.412   8.530
    9TRP    HZ3 5664   3.451  10.429   8.525
    9TRP    CE3 5665   3.626  10.377   8.415
    9TRP    HE3 5666   3.568  10.353   8.327
    9TRP    CD2 5667   3.768  10.381   8.416
    9TRP      C 5668   3.831  10.569   8.074
    9TRP      O 5669   3.906  10.594   7.988
   10ARG      N 5670   3.809  10.644   8.181
   10ARG      H 5671   3.789  10.591   8.264
   10ARG     CA 5672   3.870  10.777   8.207
   10ARG     HA 5673   3.855  10.838   8.118
   10ARG     CB 5674   3.811  10.855   8.327
   10ARG    HB2 5675   3.858  10.827   8.422
   10ARG    HB3 5676   3.827  10.961   8.306
   10ARG     CG 5677   3.663  10.830   8.352
   10ARG    HG2 5678   3.600  10.844   8.265
   10ARG    HG3 5679   3.653  10.727   8.383
   10ARG     CD 5680   3.604  10.915   8.462
   10ARG    HD2 5681   3.676  10.910   8.544
   10ARG    HD3 5682   3.616  11.021   8.439
   10ARG     NE 5683   3.462  10.867   8.490
   10ARG     HE 5684   3.397  10.859   8.414
   10ARG     CZ 5685   3.417  10.822   8.600
   10ARG    NH1 5686   3.491  10.805   8.708
   10ARG   HH11 5687   3.589  10.828   8.706
   10ARG   HH12 5688   3.442  10.783   8.793
   10ARG    NH2 5689   3.292  10.790   8.615
   10ARG   HH21 5690   3.258  10.739   8.535
   10ARG   HH22 5691   3.275  10.753   8.706
   10ARG      C 5692   4.023  10.773   8.212
   10ARG      O 5693   4.086  10.673   8.243
   11ARG      N 5694   4.086  10.886   8.177
   11ARG      H 5695   4.024  10.966   8.174
   11ARG     CA 5696   4.231  10.912   8.169
   11ARG     HA 5697   4.290  10.868   8.249
   11ARG     CB 5698   4.296  10.868   8.033
   11ARG    HB2 5699   4.235  10.885   7.944
   11ARG    HB3 5700   4.393  10.911   8.008
   11ARG     CG 5701   4.315  10.716   8.027
   11ARG    HG2 5702   4.390  10.685   8.099
   11ARG    HG3 5703   4.224  10.659   8.048
   11ARG     CD 5704   4.358  10.677   7.887
   11ARG    HD2 5705   4.354  10.569   7.881
   11ARG    HD3 5706   4.285  10.708   7.812
   11ARG     NE 5707   4.495  10.732   7.855
   11ARG     HE 5708   4.484  10.827   7.822
   11ARG     CZ 5709   4.608  10.693   7.915
   11ARG    NH1 5710   4.611  10.577   7.975
   11ARG   HH11 5711   4.525  10.524   7.971
   11ARG   HH12 5712   4.699  10.545   8.011
   11ARG    NH2 5713   4.714  10.762   7.910
   11ARG   HH21 5714   4.722  10.847   7.857
   11ARG   HH22 5715   4.784  10.735   7.978
   11ARG      C 5716   4.250  11.062   8.172
   11ARG      O 5717   4.162  11.142   8.148
   12LYS      N 5718   4.373  11.099   8.211
   12LYS      H 5719   4.442  11.025   8.208
   12LYS     CA 5720   4.424  11.237   8.217
   12LYS     HA 5721   4.363  11.300   8.152
   12LYS     CB 5722   4.415  11.291   8.363
   12LYS    HB2 5723   4.485  11.228   8.416
   12LYS    HB3 5724   4.455  11.392   8.362
   12LYS     CG 5725   4.277  11.292   8.433
   12LYS    HG2 5726   4.206  11.337   8.363
   12LYS    HG3 5727   4.234  11.192   8.438
   12LYS     CD 5728   4.272  11.355   8.574
   12LYS    HD2 5729   4.324  11.449   8.551
   12LYS    HD3 5730   4.170  11.371   8.608
   12LYS     CE 5731   4.365  11.290   8.675
   12LYS    HE2 5732   4.338  11.188   8.700
   12LYS    HE3 5733   4.466  11.278   8.637
   12LYS     NZ 5734   4.377  11.386   8.787
   12LYS    HZ1 5735   4.296  11.380   8.846
   12LYS    HZ2 5736   4.452  11.354   8.848
   12LYS    HZ3 5737   4.406  11.478   8.756
   12LYS      C 5738   4.571  11.255   8.163
   12LYS      O 5739   4.646  11.159   8.165
   13NHE      N 5740   4.610  11.376   8.135
   13NHE    HN1 5741   4.537  11.446   8.136
   13NHE    HN2 5742   4.705  11.389   8.107
    1ILE      N 5743   3.860   8.498   2.346
    1ILE     H1 5744   3.931   8.527   2.279
    1ILE     H2 5745   3.805   8.575   2.379
    1ILE     H3 5746   3.791   8.436   2.306
    1ILE     CA 5747   3.929   8.434   2.461
    1ILE     HA 5748   3.854   8.416   2.539
    1ILE     CB 5749   3.988   8.296   2.435
    1ILE     HB 5750   4.033   8.269   2.531
    1ILE    CG2 5751   3.867   8.205   2.412
    1ILE   HG21 5752   3.815   8.208   2.316
    1ILE   HG22 5753   3.896   8.100   2.411
    1ILE   HG23 5754   3.801   8.208   2.498
    1ILE    CG1 5755   4.084   8.296   2.316
    1ILE   HG12 5756   4.147   8.384   2.318
    1ILE   HG13 5757   4.033   8.283   2.220
    1ILE    CD1 5758   4.181   8.182   2.347
    1ILE   HD11 5759   4.264   8.177   2.276
    1ILE   HD12 5760   4.219   8.198   2.448
    1ILE   HD13 5761   4.134   8.085   2.341
    1ILE      C 5762   4.024   8.533   2.526
    1ILE      O 5763   4.084   8.613   2.449
    2LEU      N 5764   4.043   8.519   2.658
    2LEU      H 5765   3.997   8.440   2.699
    2LEU     CA 5766   4.136   8.604   2.734
    2LEU     HA 5767   4.124   8.707   2.697
    2LEU     CB 5768   4.102   8.597   2.886
    2LEU    HB2 5769   4.112   8.494   2.920
    2LEU    HB3 5770   4.166   8.661   2.946
    2LEU     CG 5771   3.958   8.627   2.923
    2LEU     HG 5772   3.878   8.568   2.881
    2LEU    CD1 5773   3.943   8.624   3.075
    2LEU   HD11 5774   4.020   8.677   3.131
    2LEU   HD12 5775   3.842   8.664   3.093
    2LEU   HD13 5776   3.932   8.525   3.119
    2LEU    CD2 5777   3.931   8.769   2.871
    2LEU   HD21 5778   3.918   8.761   2.762
    2LEU   HD22 5779   3.840   8.803   2.920
    2LEU   HD23 5780   4.009   8.839   2.900
    2LEU      C 5781   4.282   8.558   2.705
    2LEU      O 5782   4.307   8.442   2.682
    3ARG      N 5783   4.382   8.649   2.702
    3ARG      H 5784   4.356   8.746   2.708
    3ARG     CA 5785   4.525   8.616   2.685
    3ARG     HA 5786   4.520   8.523   2.629
    3ARG     CB 5787   4.582   8.723   2.593
    3ARG    HB2 5788   4.581   8.818   2.646
    3ARG    HB3 5789   4.683   8.695   2.565
    3ARG     CG 5790   4.516   8.742   2.455
    3ARG    HG2 5791   4.417   8.787   2.467
    3ARG    HG3 5792   4.569   8.823   2.403
    3ARG     CD 5793   4.507   8.618   2.363
    3ARG    HD2 5794   4.607   8.587   2.329
    3ARG    HD3 5795   4.474   8.525   2.408
    3ARG     NE 5796   4.432   8.642   2.232
    3ARG     HE 5797   4.419   8.737   2.204
    3ARG     CZ 5798   4.392   8.546   2.150
    3ARG    NH1 5799   4.397   8.421   2.182
    3ARG   HH11 5800   4.463   8.395   2.252
    3ARG   HH12 5801   4.356   8.359   2.112
    3ARG    NH2 5802   4.348   8.584   2.034
    3ARG   HH21 5803   4.332   8.682   2.013
    3ARG   HH22 5804   4.288   8.515   1.990
    3ARG      C 5805   4.600   8.572   2.812
    3ARG      O 5806   4.720   8.540   2.802
    4TRP      N 5807   4.526   8.553   2.922
    4TRP      H 5808   4.426   8.554   2.909
    4TRP     CA 5809   4.580   8.482   3.042
    4TRP     HA 5810   4.681   8.447   3.017
    4TRP     CB 5811   4.589   8.586   3.155
    4TRP    HB2 5812   4.597   8.538   3.252
    4TRP    HB3 5813   4.684   8.640   3.146
    4TRP     CG 5814   4.461   8.684   3.168
    4TRP    CD1 5815   4.343   8.636   3.220
    4TRP    HD1 5816   4.315   8.533   3.235
    4TRP    NE1 5817   4.258   8.742   3.236
    4TRP    HE1 5818   4.171   8.746   3.286
    4TRP    CE2 5819   4.311   8.863   3.187
    4TRP    CZ2 5820   4.269   8.994   3.167
    4TRP    HZ2 5821   4.169   9.024   3.192
    4TRP    CH2 5822   4.350   9.094   3.114
    4TRP    HH2 5823   4.318   9.198   3.106
    4TRP    CZ3 5824   4.481   9.060   3.068
    4TRP    HZ3 5825   4.549   9.125   3.015
    4TRP    CE3 5826   4.521   8.926   3.084
    4TRP    HE3 5827   4.622   8.895   3.064
    4TRP    CD2 5828   4.442   8.826   3.145
    4TRP      C 5829   4.498   8.349   3.072
    4TRP      O 5830   4.386   8.339   3.026
    5PRO      N 5831   4.556   8.250   3.148
    5PRO     CD 5832   4.688   8.242   3.200
    5PRO    HD2 5833   4.719   8.334   3.251
    5PRO    HD3 5834   4.760   8.225   3.120
    5PRO     CG 5835   4.691   8.123   3.296
    5PRO    HG2 5836   4.654   8.157   3.393
    5PRO    HG3 5837   4.789   8.074   3.303
    5PRO     CB 5838   4.573   8.029   3.243
    5PRO    HB2 5839   4.528   7.969   3.322
    5PRO    HB3 5840   4.612   7.972   3.159
    5PRO     CA 5841   4.470   8.133   3.183
    5PRO     HA 5842   4.435   8.095   3.087
    5PRO      C 5843   4.354   8.172   3.273
    5PRO      O 5844   4.370   8.233   3.379
    6TRP      N 5845   4.240   8.125   3.227
    6TRP      H 5846   4.241   8.070   3.143
    6TRP     CA 5847   4.105   8.154   3.286
    6TRP     HA 5848   4.119   8.243   3.347
    6TRP     CB 5849   4.001   8.205   3.187
    6TRP    HB2 5850   4.033   8.301   3.145
    6TRP    HB3 5851   3.987   8.132   3.108
    6TRP     CG 5852   3.869   8.219   3.257
    6TRP    CD1 5853   3.759   8.144   3.227
    6TRP    HD1 5854   3.757   8.061   3.157
    6TRP    NE1 5855   3.659   8.173   3.306
    6TRP    HE1 5856   3.564   8.143   3.296
    6TRP    CE2 5857   3.695   8.280   3.387
    6TRP    CZ2 5858   3.621   8.350   3.490
    6TRP    HZ2 5859   3.516   8.341   3.515
    6TRP    CH2 5860   3.684   8.450   3.565
    6TRP    HH2 5861   3.633   8.506   3.642
    6TRP    CZ3 5862   3.815   8.483   3.535
    6TRP    HZ3 5863   3.863   8.570   3.578
    6TRP    CE3 5864   3.887   8.408   3.446
    6TRP    HE3 5865   3.981   8.453   3.417
    6TRP    CD2 5866   3.832   8.305   3.365
    6TRP      C 5867   4.047   8.036   3.367
    6TRP      O 5868   4.026   7.928   3.314
    7TRP      N 5869   4.021   8.054   3.498
    7TRP      H 5870   4.057   8.140   3.538
    7TRP     CA 5871   3.932   7.963   3.566
    7TRP     HA 5872   3.890   7.886   3.501
    7TRP     CB 5873   4.021   7.884   3.661
    7TRP    HB2 5874   4.110   7.841   3.615
    7TRP    HB3 5875   4.056   7.949   3.741
    7TRP     CG 5876   3.953   7.774   3.728
    7TRP    CD1 5877   3.960   7.743   3.855
    7TRP    HD1 5878   4.014   7.803   3.928
    7TRP    NE1 5879   3.883   7.632   3.878
    7TRP    HE1 5880   3.867   7.590   3.969
    7TRP    CE2 5881   3.835   7.570   3.761
    7TRP    CZ2 5882   3.765   7.449   3.738
    7TRP    HZ2 5883   3.736   7.385   3.820
    7TRP    CH2 5884   3.747   7.410   3.602
    7TRP    HH2 5885   3.714   7.310   3.582
    7TRP    CZ3 5886   3.813   7.487   3.501
    7TRP    HZ3 5887   3.819   7.446   3.401
    7TRP    CE3 5888   3.872   7.611   3.529
    7TRP    HE3 5889   3.924   7.664   3.450
    7TRP    CD2 5890   3.888   7.657   3.662
    7TRP      C 5891   3.820   8.042   3.631
    7TRP      O 5892   3.845   8.137   3.700
    8PRO      N 5893   3.694   7.993   3.622
    8PRO     CD 5894   3.637   7.901   3.521
    8PRO    HD2 5895   3.639   7.801   3.564
    8PRO    HD3 5896   3.694   7.912   3.429
    8PRO     CG 5897   3.488   7.937   3.513
    8PRO    HG2 5898   3.445   7.846   3.468
    8PRO    HG3 5899   3.472   8.025   3.451
    8PRO     CB 5900   3.454   7.972   3.657
    8PRO    HB2 5901   3.443   7.884   3.717
    8PRO    HB3 5902   3.367   8.037   3.652
    8PRO     CA 5903   3.581   8.047   3.696
    8PRO     HA 5904   3.573   8.153   3.669
    8PRO      C 5905   3.591   8.044   3.853
    8PRO      O 5906   3.499   8.087   3.924
    9TRP      N 5907   3.707   8.014   3.910
    9TRP      H 5908   3.784   7.988   3.850
    9TRP     CA 5909   3.742   8.020   4.052
    9TRP     HA 5910   3.682   8.086   4.114
    9TRP     CB 5911   3.710   7.880   4.108
    9TRP    HB2 5912   3.605   7.852   4.096
    9TRP    HB3 5913   3.773   7.808   4.057
    9TRP     CG 5914   3.734   7.857   4.254
    9TRP    CD1 5915   3.824   7.772   4.311
    9TRP    HD1 5916   3.883   7.700   4.256
    9TRP    NE1 5917   3.807   7.770   4.449
    9TRP    HE1 5918   3.843   7.698   4.511
    9TRP    CE2 5919   3.719   7.871   4.490
    9TRP    CZ2 5920   3.681   7.921   4.615
    9TRP    HZ2 5921   3.717   7.878   4.706
    9TRP    CH2 5922   3.597   8.029   4.618
    9TRP    HH2 5923   3.568   8.065   4.716
    9TRP    CZ3 5924   3.539   8.076   4.504
    9TRP    HZ3 5925   3.482   8.167   4.513
    9TRP    CE3 5926   3.571   8.028   4.378
    9TRP    HE3 5927   3.525   8.074   4.293
    9TRP    CD2 5928   3.667   7.923   4.368
    9TRP      C 5929   3.886   8.067   4.072
    9TRP      O 5930   3.964   8.045   3.987
   10ARG      N 5931   3.916   8.108   4.195
   10ARG      H 5932   3.854   8.071   4.265
   10ARG     CA 5933   4.052   8.140   4.244
   10ARG     HA 5934   4.098   8.208   4.173
   10ARG     CB 5935   4.058   8.208   4.384
   10ARG    HB2 5936   4.058   8.135   4.465
   10ARG    HB3 5937   4.150   8.267   4.385
   10ARG     CG 5938   3.939   8.297   4.415
   10ARG    HG2 5939   3.918   8.372   4.339
   10ARG    HG3 5940   3.853   8.233   4.423
   10ARG     CD 5941   3.952   8.371   4.547
   10ARG    HD2 5942   3.986   8.297   4.618
   10ARG    HD3 5943   4.041   8.434   4.547
   10ARG     NE 5944   3.820   8.441   4.575
   10ARG     HE 5945   3.780   8.501   4.506
   10ARG     CZ 5946   3.744   8.424   4.676
   10ARG    NH1 5947   3.768   8.334   4.770
   10ARG   HH11 5948   3.850   8.275   4.765
   10ARG   HH12 5949   3.710   8.339   4.852
   10ARG    NH2 5950   3.637   8.494   4.695
   10ARG   HH21 5951   3.585   8.504   4.609
   10ARG   HH22 5952   3.588   8.464   4.777
   10ARG      C 5953   4.149   8.021   4.234
   10ARG      O 5954   4.112   7.905   4.236
   11ARG      N 5955   4.278   8.053   4.220
   11ARG      H 5956   4.297   8.151   4.240
   11ARG     CA 5957   4.395   7.963   4.205
   11ARG     HA 5958   4.391   7.874   4.267
   11ARG     CB 5959   4.419   7.915   4.057
   11ARG    HB2 5960   4.402   7.991   3.980
   11ARG    HB3 5961   4.518   7.875   4.033
   11ARG     CG 5962   4.319   7.808   4.016
   11ARG    HG2 5963   4.338   7.716   4.072
   11ARG    HG3 5964   4.215   7.835   4.031
   11ARG     CD 5965   4.334   7.781   3.867
   11ARG    HD2 5966   4.251   7.717   3.838
   11ARG    HD3 5967   4.317   7.871   3.808
   11ARG     NE 5968   4.468   7.719   3.836
   11ARG     HE 5969   4.536   7.794   3.826
   11ARG     CZ 5970   4.507   7.598   3.875
   11ARG    NH1 5971   4.416   7.510   3.908
   11ARG   HH11 5972   4.320   7.542   3.899
   11ARG   HH12 5973   4.446   7.416   3.927
   11ARG    NH2 5974   4.628   7.563   3.876
   11ARG   HH21 5975   4.703   7.622   3.843
   11ARG   HH22 5976   4.647   7.479   3.930
   11ARG      C 5977   4.518   8.042   4.240
   11ARG      O 5978   4.522   8.163   4.242
   12LYS      N 5979   4.622   7.965   4.274
   12LYS      H 5980   4.613   7.868   4.249
   12LYS     CA 5981   4.758   8.012   4.307
   12LYS     HA 5982   4.772   8.111   4.264
   12LYS     CB 5983   4.776   8.022   4.461
   12LYS    HB2 5984   4.769   7.918   4.492
   12LYS    HB3 5985   4.878   8.056   4.479
   12LYS     CG 5986   4.678   8.111   4.542
   12LYS    HG2 5987   4.673   8.206   4.491
   12LYS    HG3 5988   4.575   8.079   4.529
   12LYS     CD 5989   4.707   8.124   4.693
   12LYS    HD2 5990   4.813   8.149   4.687
   12LYS    HD3 5991   4.648   8.203   4.739
   12LYS     CE 5992   4.708   7.991   4.768
   12LYS    HE2 5993   4.612   7.942   4.773
   12LYS    HE3 5994   4.770   7.917   4.720
   12LYS     NZ 5995   4.775   8.019   4.897
   12LYS    HZ1 5996   4.710   8.063   4.961
   12LYS    HZ2 5997   4.793   7.930   4.942
   12LYS    HZ3 5998   4.865   8.062   4.886
   12LYS      C 5999   4.874   7.925   4.245
   12LYS      O 6000   4.852   7.809   4.219
   13NHE      N 6001   4.993   7.978   4.241
   13NHE    HN1 6002   4.997   8.077   4.264
   13NHE    HN2 6003   5.068   7.921   4.209
    1ILE      N 6004   8.139   8.553  11.393
    1ILE     H1 6005   8.045   8.529  11.419
    1ILE     H2 6006   8.146   8.586  11.299
    1ILE     H3 6007   8.176   8.631  11.447
    1ILE     CA 6008   8.224   8.432  11.408
    1ILE     HA 6009   8.323   8.455  11.367
    1ILE     CB 6010   8.254   8.390  11.552
    1ILE     HB 6011   8.317   8.301  11.539
    1ILE    CG2 6012   8.342   8.501  11.609
    1ILE   HG21 6013   8.296   8.596  11.639
    1ILE   HG22 6014   8.386   8.472  11.704
    1ILE   HG23 6015   8.431   8.513  11.547
    1ILE    CG1 6016   8.127   8.369  11.633
    1ILE   HG12 6017   8.052   8.318  11.575
    1ILE   HG13 6018   8.089   8.462  11.678
    1ILE    CD1 6019   8.167   8.266  11.739
    1ILE   HD11 6020   8.081   8.231  11.798
    1ILE   HD12 6021   8.211   8.182  11.686
    1ILE   HD13 6022   8.236   8.305  11.811
    1ILE      C 6023   8.173   8.321  11.318
    1ILE      O 6024   8.048   8.313  11.303
    2LEU      N 6025   8.265   8.236  11.271
    2LEU      H 6026   8.358   8.250  11.305
    2LEU     CA 6027   8.230   8.121  11.187
    2LEU     HA 6028   8.154   8.154  11.115
    2LEU     CB 6029   8.356   8.070  11.110
    2LEU    HB2 6030   8.432   8.041  11.183
    2LEU    HB3 6031   8.335   7.987  11.044
    2LEU     CG 6032   8.432   8.175  11.031
    2LEU     HG 6033   8.471   8.264  11.080
    2LEU    CD1 6034   8.548   8.110  10.956
    2LEU   HD11 6035   8.524   8.017  10.904
    2LEU   HD12 6036   8.584   8.188  10.888
    2LEU   HD13 6037   8.638   8.092  11.016
    2LEU    CD2 6038   8.330   8.231  10.931
    2LEU   HD21 6039   8.264   8.299  10.986
    2LEU   HD22 6040   8.388   8.285  10.855
    2LEU   HD23 6041   8.277   8.152  10.877
    2LEU      C 6042   8.168   8.009  11.276
    2LEU      O 6043   8.204   7.995  11.391
    3ARG      N 6044   8.071   7.929  11.227
    3ARG      H 6045   8.035   7.952  11.136
    3ARG     CA 6046   8.013   7.815  11.299
    3ARG     HA 6047   8.026   7.844  11.403
    3ARG     CB 6048   7.863   7.818  11.268
    3ARG    HB2 6049   7.850   7.794  11.163
    3ARG    HB3 6050   7.813   7.744  11.330
    3ARG     CG 6051   7.786   7.947  11.302
    3ARG    HG2 6052   7.815   8.026  11.233
    3ARG    HG3 6053   7.681   7.931  11.273
    3ARG     CD 6054   7.793   7.996  11.448
    3ARG    HD2 6055   7.740   7.928  11.516
    3ARG    HD3 6056   7.890   7.998  11.496
    3ARG     NE 6057   7.721   8.129  11.473
    3ARG     HE 6058   7.655   8.159  11.403
    3ARG     CZ 6059   7.734   8.203  11.582
    3ARG    NH1 6060   7.822   8.177  11.673
    3ARG   HH11 6061   7.856   8.082  11.678
    3ARG   HH12 6062   7.824   8.245  11.748
    3ARG    NH2 6063   7.651   8.302  11.595
    3ARG   HH21 6064   7.590   8.330  11.519
    3ARG   HH22 6065   7.685   8.373  11.659
    3ARG      C 6066   8.092   7.683  11.294
    3ARG      O 6067   8.048   7.584  11.355
    4TRP      N 6068   8.214   7.687  11.237
    4TRP      H 6069   8.249   7.780  11.218
    4TRP     CA 6070   8.312   7.577  11.253
    4TRP     HA 6071   8.268   7.502  11.319
    4TRP     CB 6072   8.331   7.514  11.113
    4TRP    HB2 6073   8.423   7.455  11.108
    4TRP    HB3 6074   8.253   7.440  11.097
    4TRP     CG 6075   8.346   7.621  10.992
    4TRP    CD1 6076   8.462   7.693  10.978
    4TRP    HD1 6077   8.541   7.705  11.050
    4TRP    NE1 6078   8.454   7.762  10.860
    4TRP    HE1 6079   8.527   7.810  10.809
    4TRP    CE2 6080   8.330   7.747  10.796
    4TRP    CZ2 6081   8.263   7.798  10.685
    4TRP    HZ2 6082   8.311   7.872  10.622
    4TRP    CH2 6083   8.134   7.761  10.646
    4TRP    HH2 6084   8.087   7.796  10.556
    4TRP    CZ3 6085   8.062   7.671  10.731
    4TRP    HZ3 6086   7.958   7.643  10.719
    4TRP    CE3 6087   8.127   7.624  10.845
    4TRP    HE3 6088   8.084   7.546  10.907
    4TRP    CD2 6089   8.261   7.655  10.880
    4TRP      C 6090   8.444   7.626  11.329
    4TRP      O 6091   8.467   7.745  11.331
    5PRO      N 6092   8.524   7.533  11.390
    5PRO     CD 6093   8.506   7.393  11.405
    5PRO    HD2 6094   8.478   7.344  11.311
    5PRO    HD3 6095   8.427   7.372  11.476
    5PRO     CG 6096   8.637   7.335  11.459
    5PRO    HG2 6097   8.704   7.319  11.375
    5PRO    HG3 6098   8.624   7.247  11.521
    5PRO     CB 6099   8.704   7.461  11.534
    5PRO    HB2 6100   8.813   7.456  11.534
    5PRO    HB3 6101   8.658   7.468  11.632
    5PRO     CA 6102   8.652   7.583  11.449
    5PRO     HA 6103   8.621   7.661  11.519
    5PRO      C 6104   8.747   7.638  11.344
    5PRO      O 6105   8.781   7.571  11.245
    6TRP      N 6106   8.792   7.757  11.376
    6TRP      H 6107   8.762   7.798  11.463
    6TRP     CA 6108   8.879   7.843  11.289
    6TRP     HA 6109   8.867   7.803  11.189
    6TRP     CB 6110   8.828   7.985  11.268
    6TRP    HB2 6111   8.731   7.983  11.216
    6TRP    HB3 6112   8.819   8.035  11.364
    6TRP     CG 6113   8.930   8.062  11.188
    6TRP    CD1 6114   8.999   8.169  11.238
    6TRP    HD1 6115   8.996   8.204  11.341
    6TRP    NE1 6116   9.085   8.214  11.150
    6TRP    HE1 6117   9.138   8.300  11.157
    6TRP    CE2 6118   9.068   8.146  11.031
    6TRP    CZ2 6119   9.136   8.158  10.904
    6TRP    HZ2 6120   9.206   8.235  10.873
    6TRP    CH2 6121   9.105   8.070  10.799
    6TRP    HH2 6122   9.153   8.076  10.703
    6TRP    CZ3 6123   9.008   7.975  10.820
    6TRP    HZ3 6124   8.968   7.915  10.739
    6TRP    CE3 6125   8.952   7.956  10.944
    6TRP    HE3 6126   8.865   7.893  10.944
    6TRP    CD2 6127   8.976   8.041  11.055
    6TRP      C 6128   9.026   7.846  11.334
    6TRP      O 6129   9.057   7.886  11.445
    7TRP      N 6130   9.121   7.801  11.249
    7TRP      H 6131   9.086   7.752  11.167
    7TRP     CA 6132   9.259   7.838  11.270
    7TRP     HA 6133   9.274   7.904  11.356
    7TRP     CB 6134   9.329   7.709  11.313
    7TRP    HB2 6135   9.279   7.656  11.394
    7TRP    HB3 6136   9.334   7.641  11.228
    7TRP     CG 6137   9.466   7.728  11.356
    7TRP    CD1 6138   9.570   7.655  11.322
    7TRP    HD1 6139   9.564   7.574  11.250
    7TRP    NE1 6140   9.682   7.704  11.385
    7TRP    HE1 6141   9.775   7.670  11.371
    7TRP    CE2 6142   9.654   7.803  11.480
    7TRP    CZ2 6143   9.736   7.871  11.576
    7TRP    HZ2 6144   9.842   7.851  11.582
    7TRP    CH2 6145   9.669   7.955  11.669
    7TRP    HH2 6146   9.725   7.990  11.754
    7TRP    CZ3 6147   9.526   7.954  11.671
    7TRP    HZ3 6148   9.475   8.000  11.754
    7TRP    CE3 6149   9.451   7.894  11.568
    7TRP    HE3 6150   9.343   7.893  11.574
    7TRP    CD2 6151   9.513   7.813  11.469
    7TRP      C 6152   9.313   7.903  11.144
    7TRP      O 6153   9.298   7.850  11.038
    8PRO      N 6154   9.391   8.013  11.158
    8PRO     CD 6155   9.395   8.111  11.269
    8PRO    HD2 6156   9.478   8.083  11.333
    8PRO    HD3 6157   9.298   8.110  11.319
    8PRO     CG 6158   9.437   8.244  11.205
    8PRO    HG2 6159   9.475   8.300  11.292
    8PRO    HG3 6160   9.353   8.293  11.157
    8PRO     CB 6161   9.535   8.199  11.097
    8PRO    HB2 6162   9.631   8.174  11.140
    8PRO    HB3 6163   9.536   8.279  11.023
    8PRO     CA 6164   9.464   8.074  11.048
    8PRO     HA 6165   9.391   8.099  10.970
    8PRO      C 6166   9.572   7.984  10.977
    8PRO      O 6167   9.640   8.027  10.884
    9TRP      N 6168   9.576   7.854  11.004
    9TRP      H 6169   9.513   7.818  11.075
    9TRP     CA 6170   9.657   7.750  10.939
    9TRP     HA 6171   9.692   7.773  10.839
    9TRP     CB 6172   9.788   7.743  11.021
    9TRP    HB2 6173   9.841   7.838  11.025
    9TRP    HB3 6174   9.762   7.713  11.123
    9TRP     CG 6175   9.892   7.646  10.976
    9TRP    CD1 6176   9.937   7.537  11.043
    9TRP    HD1 6177   9.911   7.512  11.145
    9TRP    NE1 6178  10.044   7.479  10.974
    9TRP    HE1 6179  10.111   7.414  11.013
    9TRP    CE2 6180  10.058   7.538  10.847
    9TRP    CZ2 6181  10.136   7.507  10.735
    9TRP    HZ2 6182  10.207   7.427  10.736
    9TRP    CH2 6183  10.117   7.581  10.622
    9TRP    HH2 6184  10.180   7.557  10.537
    9TRP    CZ3 6185  10.038   7.692  10.623
    9TRP    HZ3 6186  10.020   7.739  10.528
    9TRP    CE3 6187   9.961   7.728  10.732
    9TRP    HE3 6188   9.896   7.814  10.723
    9TRP    CD2 6189   9.967   7.647  10.849
    9TRP      C 6190   9.580   7.619  10.927
    9TRP      O 6191   9.497   7.596  11.006
   10ARG      N 6192   9.631   7.531  10.841
   10ARG      H 6193   9.729   7.547  10.822
   10ARG     CA 6194   9.586   7.391  10.825
   10ARG     HA 6195   9.478   7.391  10.813
   10ARG     CB 6196   9.646   7.316  10.702
   10ARG    HB2 6197   9.743   7.271  10.724
   10ARG    HB3 6198   9.573   7.239  10.675
   10ARG     CG 6199   9.673   7.405  10.582
   10ARG    HG2 6200   9.588   7.465  10.550
   10ARG    HG3 6201   9.753   7.472  10.609
   10ARG     CD 6202   9.720   7.329  10.460
   10ARG    HD2 6203   9.795   7.260  10.496
   10ARG    HD3 6204   9.645   7.255  10.430
   10ARG     NE 6205   9.762   7.430  10.353
   10ARG     HE 6206   9.698   7.503  10.327
   10ARG     CZ 6207   9.877   7.441  10.300
   10ARG    NH1 6208   9.981   7.368  10.336
   10ARG   HH11 6209   9.972   7.299  10.409
   10ARG   HH12 6210  10.062   7.376  10.277
   10ARG    NH2 6211   9.901   7.526  10.205
   10ARG   HH21 6212   9.858   7.615  10.225
   10ARG   HH22 6213   9.997   7.524  10.178
   10ARG      C 6214   9.600   7.308  10.953
   10ARG      O 6215   9.681   7.334  11.041
   11ARG      N 6216   9.514   7.207  10.966
   11ARG      H 6217   9.467   7.184  10.880
   11ARG     CA 6218   9.500   7.112  11.079
   11ARG     HA 6219   9.594   7.078  11.123
   11ARG     CB 6220   9.410   7.165  11.197
   11ARG    HB2 6221   9.323   7.223  11.166
   11ARG    HB3 6222   9.371   7.092  11.267
   11ARG     CG 6223   9.485   7.268  11.281
   11ARG    HG2 6224   9.566   7.219  11.335
   11ARG    HG3 6225   9.528   7.350  11.224
   11ARG     CD 6226   9.388   7.331  11.380
   11ARG    HD2 6227   9.440   7.414  11.426
   11ARG    HD3 6228   9.305   7.380  11.328
   11ARG     NE 6229   9.339   7.230  11.480
   11ARG     HE 6230   9.260   7.180  11.439
   11ARG     CZ 6231   9.415   7.172  11.573
   11ARG    NH1 6232   9.527   7.229  11.607
   11ARG   HH11 6233   9.547   7.317  11.561
   11ARG   HH12 6234   9.578   7.190  11.685
   11ARG    NH2 6235   9.380   7.066  11.632
   11ARG   HH21 6236   9.290   7.022  11.618
   11ARG   HH22 6237   9.454   7.019  11.682
   11ARG      C 6238   9.425   6.991  11.027
   11ARG      O 6239   9.359   6.991  10.925
   12LYS      N 6240   9.444   6.881  11.101
   12LYS      H 6241   9.483   6.898  11.193
   12LYS     CA 6242   9.380   6.750  11.080
   12LYS     HA 6243   9.289   6.765  11.022
   12LYS     CB 6244   9.475   6.655  11.002
   12LYS    HB2 6245   9.557   6.641  11.073
   12LYS    HB3 6246   9.423   6.560  10.992
   12LYS     CG 6247   9.529   6.700  10.865
   12LYS    HG2 6248   9.443   6.735  10.808
   12LYS    HG3 6249   9.583   6.794  10.871
   12LYS     CD 6250   9.615   6.598  10.788
   12LYS    HD2 6251   9.549   6.512  10.797
   12LYS    HD3 6252   9.631   6.628  10.684
   12LYS     CE 6253   9.740   6.553  10.863
   12LYS    HE2 6254   9.813   6.631  10.878
   12LYS    HE3 6255   9.718   6.522  10.964
   12LYS     NZ 6256   9.785   6.430  10.795
   12LYS    HZ1 6257   9.835   6.454  10.710
   12LYS    HZ2 6258   9.857   6.387  10.852
   12LYS    HZ3 6259   9.713   6.360  10.787
   12LYS      C 6260   9.331   6.680  11.213
   12LYS      O 6261   9.386   6.708  11.317
   13NHE      N 6262   9.246   6.582  11.200
   13NHE    HN1 6263   9.206   6.571  11.108
   13NHE    HN2 6264   9.220   6.532  11.283
    1ILE      N 6265   2.742  10.106   4.439
    1ILE     H1 6266   2.823  10.165   4.430
    1ILE     H2 6267   2.662  10.156   4.471
    1ILE     H3 6268   2.711  10.067   4.351
    1ILE     CA 6269   2.774   9.998   4.537
    1ILE     HA 6270   2.682   9.943   4.556
    1ILE     CB 6271   2.871   9.891   4.487
    1ILE     HB 6272   2.880   9.823   4.572
    1ILE    CG2 6273   2.795   9.817   4.377
    1ILE   HG21 6274   2.784   9.863   4.278
    1ILE   HG22 6275   2.846   9.725   4.347
    1ILE   HG23 6276   2.701   9.776   4.416
    1ILE    CG1 6277   3.002   9.950   4.436
    1ILE   HG12 6278   3.036  10.029   4.502
    1ILE   HG13 6279   2.997   9.982   4.331
    1ILE    CD1 6280   3.104   9.838   4.458
    1ILE   HD11 6281   3.207   9.871   4.438
    1ILE   HD12 6282   3.095   9.807   4.562
    1ILE   HD13 6283   3.089   9.754   4.393
    1ILE      C 6284   2.810  10.058   4.671
    1ILE      O 6285   2.873  10.167   4.669
    2LEU      N 6286   2.779   9.985   4.779
    2LEU      H 6287   2.742   9.894   4.759
    2LEU     CA 6288   2.812  10.028   4.915
    2LEU     HA 6289   2.791  10.135   4.922
    2LEU     CB 6290   2.725   9.949   5.018
    2LEU    HB2 6291   2.746   9.842   5.008
    2LEU    HB3 6292   2.743   9.980   5.121
    2LEU     CG 6293   2.575   9.952   4.994
    2LEU     HG 6294   2.535   9.917   4.900
    2LEU    CD1 6295   2.504   9.878   5.107
    2LEU   HD11 6296   2.538   9.901   5.208
    2LEU   HD12 6297   2.398   9.901   5.092
    2LEU   HD13 6298   2.502   9.769   5.097
    2LEU    CD2 6299   2.537  10.101   4.997
    2LEU   HD21 6300   2.569  10.144   4.902
    2LEU   HD22 6301   2.428  10.104   5.009
    2LEU   HD23 6302   2.578  10.152   5.085
    2LEU      C 6303   2.965  10.007   4.941
    2LEU      O 6304   3.024   9.916   4.887
    3ARG      N 6305   3.033  10.092   5.020
    3ARG      H 6306   2.984  10.174   5.052
    3ARG     CA 6307   3.174  10.076   5.058
    3ARG     HA 6308   3.214  10.020   4.974
    3ARG     CB 6309   3.234  10.216   5.054
    3ARG    HB2 6310   3.190  10.275   5.134
    3ARG    HB3 6311   3.342  10.208   5.067
    3ARG     CG 6312   3.224  10.295   4.922
    3ARG    HG2 6313   3.121  10.325   4.905
    3ARG    HG3 6314   3.272  10.393   4.938
    3ARG     CD 6315   3.282  10.228   4.796
    3ARG    HD2 6316   3.391  10.221   4.801
    3ARG    HD3 6317   3.258  10.124   4.778
    3ARG     NE 6318   3.261  10.308   4.666
    3ARG     HE 6319   3.236  10.405   4.677
    3ARG     CZ 6320   3.279  10.260   4.545
    3ARG    NH1 6321   3.302  10.135   4.522
    3ARG   HH11 6322   3.340  10.082   4.597
    3ARG   HH12 6323   3.308  10.112   4.423
    3ARG    NH2 6324   3.275  10.347   4.447
    3ARG   HH21 6325   3.246  10.442   4.463
    3ARG   HH22 6326   3.256  10.304   4.358
    3ARG      C 6327   3.203   9.981   5.175
    3ARG      O 6328   3.321   9.962   5.210
    4TRP      N 6329   3.099   9.909   5.222
    4TRP      H 6330   3.016   9.912   5.166
    4TRP     CA 6331   3.119   9.792   5.313
    4TRP     HA 6332   3.226   9.777   5.325
    4TRP     CB 6333   3.058   9.832   5.449
    4TRP    HB2 6334   3.039   9.744   5.510
    4TRP    HB3 6335   3.133   9.887   5.506
    4TRP     CG 6336   2.915   9.907   5.440
    4TRP    CD1 6337   2.801   9.836   5.409
    4TRP    HD1 6338   2.796   9.736   5.366
    4TRP    NE1 6339   2.694   9.918   5.425
    4TRP    HE1 6340   2.595   9.895   5.427
    4TRP    CE2 6341   2.730  10.050   5.459
    4TRP    CZ2 6342   2.669  10.173   5.477
    4TRP    HZ2 6343   2.563  10.184   5.464
    4TRP    CH2 6344   2.737  10.290   5.512
    4TRP    HH2 6345   2.686  10.384   5.533
    4TRP    CZ3 6346   2.879  10.286   5.521
    4TRP    HZ3 6347   2.944  10.371   5.537
    4TRP    CE3 6348   2.941  10.163   5.498
    4TRP    HE3 6349   3.047  10.148   5.516
    4TRP    CD2 6350   2.872  10.042   5.471
    4TRP      C 6351   3.066   9.658   5.246
    4TRP      O 6352   2.987   9.666   5.154
    5PRO      N 6353   3.113   9.537   5.292
    5PRO     CD 6354   3.211   9.511   5.391
    5PRO    HD2 6355   3.197   9.569   5.482
    5PRO    HD3 6356   3.310   9.535   5.353
    5PRO     CG 6357   3.207   9.361   5.421
    5PRO    HG2 6358   3.128   9.344   5.494
    5PRO    HG3 6359   3.303   9.318   5.451
    5PRO     CB 6360   3.145   9.298   5.286
    5PRO    HB2 6361   3.089   9.207   5.305
    5PRO    HB3 6362   3.227   9.289   5.214
    5PRO     CA 6363   3.051   9.414   5.234
    5PRO     HA 6364   3.066   9.424   5.127
    5PRO      C 6365   2.904   9.401   5.269
    5PRO      O 6366   2.862   9.407   5.385
    6TRP      N 6367   2.831   9.378   5.161
    6TRP      H 6368   2.878   9.369   5.073
    6TRP     CA 6369   2.681   9.370   5.159
    6TRP     HA 6370   2.648   9.421   5.249
    6TRP     CB 6371   2.614   9.458   5.053
    6TRP    HB2 6372   2.636   9.564   5.073
    6TRP    HB3 6373   2.650   9.430   4.955
    6TRP     CG 6374   2.466   9.433   5.055
    6TRP    CD1 6375   2.399   9.376   4.950
    6TRP    HD1 6376   2.444   9.336   4.860
    6TRP    NE1 6377   2.272   9.361   4.980
    6TRP    HE1 6378   2.199   9.335   4.916
    6TRP    CE2 6379   2.247   9.418   5.103
    6TRP    CZ2 6380   2.124   9.429   5.180
    6TRP    HZ2 6381   2.023   9.405   5.148
    6TRP    CH2 6382   2.127   9.485   5.308
    6TRP    HH2 6383   2.038   9.495   5.368
    6TRP    CZ3 6384   2.247   9.532   5.357
    6TRP    HZ3 6385   2.252   9.591   5.448
    6TRP    CE3 6386   2.364   9.511   5.289
    6TRP    HE3 6387   2.448   9.568   5.326
    6TRP    CD2 6388   2.371   9.456   5.159
    6TRP      C 6389   2.627   9.226   5.149
    6TRP      O 6390   2.655   9.155   5.054
    7TRP      N 6391   2.549   9.180   5.248
    7TRP      H 6392   2.545   9.238   5.332
    7TRP     CA 6393   2.466   9.064   5.225
    7TRP     HA 6394   2.473   9.025   5.124
    7TRP     CB 6395   2.528   8.952   5.309
    7TRP    HB2 6396   2.635   8.941   5.296
    7TRP    HB3 6397   2.512   8.974   5.415
    7TRP     CG 6398   2.469   8.822   5.288
    7TRP    CD1 6399   2.433   8.735   5.379
    7TRP    HD1 6400   2.438   8.756   5.486
    7TRP    NE1 6401   2.383   8.623   5.318
    7TRP    HE1 6402   2.343   8.544   5.365
    7TRP    CE2 6403   2.400   8.622   5.178
    7TRP    CZ2 6404   2.376   8.523   5.078
    7TRP    HZ2 6405   2.334   8.427   5.105
    7TRP    CH2 6406   2.422   8.552   4.947
    7TRP    HH2 6407   2.424   8.472   4.876
    7TRP    CZ3 6408   2.501   8.670   4.928
    7TRP    HZ3 6409   2.555   8.681   4.834
    7TRP    CE3 6410   2.513   8.769   5.027
    7TRP    HE3 6411   2.576   8.854   5.009
    7TRP    CD2 6412   2.465   8.747   5.158
    7TRP      C 6413   2.322   9.099   5.257
    7TRP      O 6414   2.295   9.151   5.362
    8PRO      N 6415   2.225   9.054   5.174
    8PRO     CD 6416   2.235   9.019   5.030
    8PRO    HD2 6417   2.245   8.911   5.025
    8PRO    HD3 6418   2.320   9.074   4.988
    8PRO     CG 6419   2.098   9.049   4.971
    8PRO    HG2 6420   2.098   8.988   4.879
    8PRO    HG3 6421   2.086   9.155   4.950
    8PRO     CB 6422   2.004   9.011   5.084
    8PRO    HB2 6423   1.991   8.904   5.091
    8PRO    HB3 6424   1.912   9.067   5.067
    8PRO     CA 6425   2.083   9.064   5.203
    8PRO     HA 6426   2.061   9.170   5.221
    8PRO      C 6427   2.032   8.988   5.330
    8PRO      O 6428   1.913   8.989   5.363
    9TRP      N 6429   2.121   8.939   5.417
    9TRP      H 6430   2.219   8.947   5.393
    9TRP     CA 6431   2.096   8.879   5.548
    9TRP     HA 6432   2.002   8.906   5.596
    9TRP     CB 6433   2.079   8.728   5.522
    9TRP    HB2 6434   1.998   8.705   5.453
    9TRP    HB3 6435   2.173   8.690   5.480
    9TRP     CG 6436   2.050   8.640   5.640
    9TRP    CD1 6437   2.129   8.542   5.691
    9TRP    HD1 6438   2.220   8.506   5.645
    9TRP    NE1 6439   2.061   8.474   5.792
    9TRP    HE1 6440   2.087   8.383   5.829
    9TRP    CE2 6441   1.942   8.541   5.825
    9TRP    CZ2 6442   1.848   8.525   5.927
    9TRP    HZ2 6443   1.856   8.445   5.999
    9TRP    CH2 6444   1.747   8.616   5.935
    9TRP    HH2 6445   1.673   8.600   6.014
    9TRP    CZ3 6446   1.727   8.708   5.837
    9TRP    HZ3 6447   1.651   8.783   5.855
    9TRP    CE3 6448   1.815   8.726   5.732
    9TRP    HE3 6449   1.796   8.805   5.662
    9TRP    CD2 6450   1.931   8.642   5.726
    9TRP      C 6451   2.204   8.916   5.648
    9TRP      O 6452   2.312   8.940   5.608
   10ARG      N 6453   2.174   8.896   5.776
   10ARG      H 6454   2.100   8.828   5.789
   10ARG     CA 6455   2.268   8.907   5.890
   10ARG     HA 6456   2.320   9.002   5.882
   10ARG     CB 6457   2.203   8.901   6.031
   10ARG    HB2 6458   2.189   8.798   6.066
   10ARG    HB3 6459   2.270   8.955   6.098
   10ARG     CG 6460   2.063   8.960   6.038
   10ARG    HG2 6461   2.056   9.061   5.998
   10ARG    HG3 6462   1.999   8.897   5.979
   10ARG     CD 6463   2.006   8.964   6.178
   10ARG    HD2 6464   2.027   8.867   6.220
   10ARG    HD3 6465   2.070   9.023   6.244
   10ARG     NE 6466   1.860   9.008   6.169
   10ARG     HE 6467   1.837   9.092   6.119
   10ARG     CZ 6468   1.759   8.942   6.207
   10ARG    NH1 6469   1.766   8.819   6.257
   10ARG   HH11 6470   1.855   8.773   6.267
   10ARG   HH12 6471   1.681   8.784   6.298
   10ARG    NH2 6472   1.639   8.991   6.202
   10ARG   HH21 6473   1.623   9.039   6.114
   10ARG   HH22 6474   1.571   8.924   6.233
   10ARG      C 6475   2.387   8.810   5.878
   10ARG      O 6476   2.382   8.706   5.816
   11ARG      N 6477   2.500   8.850   5.939
   11ARG      H 6478   2.485   8.927   6.003
   11ARG     CA 6479   2.631   8.782   5.943
   11ARG     HA 6480   2.626   8.674   5.955
   11ARG     CB 6481   2.722   8.810   5.818
   11ARG    HB2 6482   2.718   8.912   5.779
   11ARG    HB3 6483   2.828   8.789   5.827
   11ARG     CG 6484   2.674   8.730   5.696
   11ARG    HG2 6485   2.692   8.624   5.712
   11ARG    HG3 6486   2.569   8.744   5.672
   11ARG     CD 6487   2.752   8.777   5.574
   11ARG    HD2 6488   2.706   8.731   5.487
   11ARG    HD3 6489   2.738   8.883   5.555
   11ARG     NE 6490   2.898   8.742   5.586
   11ARG     HE 6491   2.944   8.816   5.639
   11ARG     CZ 6492   2.947   8.619   5.585
   11ARG    NH1 6493   2.875   8.522   5.534
   11ARG   HH11 6494   2.786   8.551   5.497
   11ARG   HH12 6495   2.917   8.431   5.525
   11ARG    NH2 6496   3.063   8.592   5.627
   11ARG   HH21 6497   3.128   8.662   5.658
   11ARG   HH22 6498   3.080   8.493   5.644
   11ARG      C 6499   2.709   8.840   6.059
   11ARG      O 6500   2.682   8.946   6.111
   12LYS      N 6501   2.807   8.760   6.103
   12LYS      H 6502   2.832   8.685   6.039
   12LYS     CA 6503   2.903   8.791   6.209
   12LYS     HA 6504   2.908   8.899   6.221
   12LYS     CB 6505   2.858   8.728   6.344
   12LYS    HB2 6506   2.865   8.622   6.323
   12LYS    HB3 6507   2.933   8.753   6.418
   12LYS     CG 6508   2.718   8.764   6.399
   12LYS    HG2 6509   2.710   8.873   6.395
   12LYS    HG3 6510   2.639   8.739   6.329
   12LYS     CD 6511   2.682   8.706   6.537
   12LYS    HD2 6512   2.773   8.735   6.591
   12LYS    HD3 6513   2.593   8.752   6.579
   12LYS     CE 6514   2.686   8.554   6.545
   12LYS    HE2 6515   2.611   8.505   6.484
   12LYS    HE3 6516   2.778   8.513   6.504
   12LYS     NZ 6517   2.690   8.520   6.688
   12LYS    HZ1 6518   2.596   8.527   6.728
   12LYS    HZ2 6519   2.710   8.421   6.697
   12LYS    HZ3 6520   2.764   8.567   6.738
   12LYS      C 6521   3.051   8.748   6.178
   12LYS      O 6522   3.070   8.657   6.100
   13NHE      N 6523   3.146   8.800   6.250
   13NHE    HN1 6524   3.117   8.877   6.310
   13NHE    HN2 6525   3.239   8.768   6.236
    1ILE      N 6526   7.088   2.190   3.291
    1ILE     H1 6527   7.056   2.186   3.195
    1ILE     H2 6528   7.049   2.268   3.340
    1ILE     H3 6529   7.057   2.111   3.346
    1ILE     CA 6530   7.236   2.202   3.290
    1ILE     HA 6531   7.268   2.221   3.393
    1ILE     CB 6532   7.312   2.075   3.252
    1ILE     HB 6533   7.417   2.105   3.258
    1ILE    CG2 6534   7.285   1.976   3.365
    1ILE   HG21 6535   7.189   1.925   3.370
    1ILE   HG22 6536   7.350   1.889   3.358
    1ILE   HG23 6537   7.317   2.019   3.461
    1ILE    CG1 6538   7.268   2.021   3.116
    1ILE   HG12 6539   7.255   2.101   3.045
    1ILE   HG13 6540   7.180   1.955   3.123
    1ILE    CD1 6541   7.392   1.947   3.064
    1ILE   HD11 6542   7.380   1.913   2.961
    1ILE   HD12 6543   7.475   2.017   3.070
    1ILE   HD13 6544   7.414   1.858   3.120
    1ILE      C 6545   7.278   2.326   3.216
    1ILE      O 6546   7.209   2.359   3.116
    2LEU      N 6547   7.391   2.385   3.258
    2LEU      H 6548   7.440   2.336   3.330
    2LEU     CA 6549   7.448   2.504   3.193
    2LEU     HA 6550   7.364   2.571   3.169
    2LEU     CB 6551   7.548   2.575   3.288
    2LEU    HB2 6552   7.629   2.506   3.313
    2LEU    HB3 6553   7.590   2.666   3.246
    2LEU     CG 6554   7.495   2.608   3.427
    2LEU     HG 6555   7.456   2.530   3.490
    2LEU    CD1 6556   7.602   2.684   3.505
    2LEU   HD11 6557   7.652   2.765   3.452
    2LEU   HD12 6558   7.550   2.720   3.595
    2LEU   HD13 6559   7.679   2.622   3.551
    2LEU    CD2 6560   7.374   2.699   3.402
    2LEU   HD21 6561   7.292   2.635   3.370
    2LEU   HD22 6562   7.352   2.747   3.499
    2LEU   HD23 6563   7.397   2.781   3.333
    2LEU      C 6564   7.516   2.462   3.059
    2LEU      O 6565   7.568   2.353   3.048
    3ARG      N 6566   7.514   2.545   2.952
    3ARG      H 6567   7.459   2.629   2.960
    3ARG     CA 6568   7.583   2.519   2.825
    3ARG     HA 6569   7.585   2.411   2.822
    3ARG     CB 6570   7.487   2.567   2.716
    3ARG    HB2 6571   7.480   2.675   2.722
    3ARG    HB3 6572   7.528   2.537   2.619
    3ARG     CG 6573   7.346   2.506   2.712
    3ARG    HG2 6574   7.288   2.543   2.796
    3ARG    HG3 6575   7.292   2.552   2.628
    3ARG     CD 6576   7.336   2.352   2.703
    3ARG    HD2 6577   7.372   2.316   2.606
    3ARG    HD3 6578   7.400   2.293   2.768
    3ARG     NE 6579   7.193   2.297   2.709
    3ARG     HE 6580   7.119   2.363   2.691
    3ARG     CZ 6581   7.162   2.170   2.727
    3ARG    NH1 6582   7.250   2.081   2.759
    3ARG   HH11 6583   7.345   2.101   2.735
    3ARG   HH12 6584   7.210   1.989   2.776
    3ARG    NH2 6585   7.037   2.138   2.710
    3ARG   HH21 6586   6.966   2.210   2.697
    3ARG   HH22 6587   7.011   2.053   2.757
    3ARG      C 6588   7.733   2.554   2.820
    3ARG      O 6589   7.796   2.531   2.716
    4TRP      N 6590   7.790   2.590   2.936
    4TRP      H 6591   7.735   2.575   3.019
    4TRP     CA 6592   7.939   2.595   2.952
    4TRP     HA 6593   7.984   2.562   2.858
    4TRP     CB 6594   7.975   2.744   2.973
    4TRP    HB2 6595   8.074   2.755   3.017
    4TRP    HB3 6596   7.985   2.792   2.876
    4TRP     CG 6597   7.878   2.824   3.075
    4TRP    CD1 6598   7.886   2.801   3.210
    4TRP    HD1 6599   7.935   2.719   3.260
    4TRP    NE1 6600   7.806   2.892   3.273
    4TRP    HE1 6601   7.802   2.916   3.372
    4TRP    CE2 6602   7.734   2.974   3.184
    4TRP    CZ2 6603   7.635   3.071   3.189
    4TRP    HZ2 6604   7.594   3.102   3.283
    4TRP    CH2 6605   7.583   3.136   3.076
    4TRP    HH2 6606   7.512   3.217   3.083
    4TRP    CZ3 6607   7.627   3.092   2.947
    4TRP    HZ3 6608   7.586   3.126   2.853
    4TRP    CE3 6609   7.722   2.990   2.943
    4TRP    HE3 6610   7.769   2.962   2.850
    4TRP    CD2 6611   7.782   2.931   3.057
    4TRP      C 6612   7.990   2.492   3.062
    4TRP      O 6613   7.909   2.451   3.143
    5PRO      N 6614   8.121   2.452   3.060
    5PRO     CD 6615   8.223   2.483   2.967
    5PRO    HD2 6616   8.230   2.590   2.945
    5PRO    HD3 6617   8.206   2.432   2.873
    5PRO     CG 6618   8.355   2.432   3.027
    5PRO    HG2 6619   8.393   2.508   3.095
    5PRO    HG3 6620   8.429   2.402   2.952
    5PRO     CB 6621   8.308   2.314   3.126
    5PRO    HB2 6622   8.376   2.302   3.210
    5PRO    HB3 6623   8.292   2.226   3.065
    5PRO     CA 6624   8.166   2.364   3.172
    5PRO     HA 6625   8.098   2.279   3.170
    5PRO      C 6626   8.160   2.435   3.307
    5PRO      O 6627   8.215   2.544   3.327
    6TRP      N 6628   8.097   2.363   3.397
    6TRP      H 6629   8.062   2.272   3.370
    6TRP     CA 6630   8.065   2.407   3.537
    6TRP     HA 6631   8.072   2.516   3.534
    6TRP     CB 6632   7.918   2.391   3.577
    6TRP    HB2 6633   7.854   2.453   3.513
    6TRP    HB3 6634   7.890   2.287   3.569
    6TRP     CG 6635   7.903   2.429   3.722
    6TRP    CD1 6636   7.868   2.341   3.820
    6TRP    HD1 6637   7.856   2.234   3.807
    6TRP    NE1 6638   7.867   2.399   3.937
    6TRP    HE1 6639   7.831   2.361   4.022
    6TRP    CE2 6640   7.890   2.535   3.920
    6TRP    CZ2 6641   7.898   2.642   4.017
    6TRP    HZ2 6642   7.872   2.640   4.123
    6TRP    CH2 6643   7.932   2.772   3.975
    6TRP    HH2 6644   7.938   2.855   4.043
    6TRP    CZ3 6645   7.954   2.794   3.841
    6TRP    HZ3 6646   7.964   2.894   3.800
    6TRP    CE3 6647   7.958   2.689   3.752
    6TRP    HE3 6648   7.957   2.720   3.648
    6TRP    CD2 6649   7.924   2.556   3.785
    6TRP      C 6650   8.156   2.345   3.644
    6TRP      O 6651   8.162   2.224   3.659
    7TRP      N 6652   8.232   2.427   3.720
    7TRP      H 6653   8.236   2.523   3.689
    7TRP     CA 6654   8.287   2.378   3.844
    7TRP     HA 6655   8.259   2.275   3.867
    7TRP     CB 6656   8.438   2.367   3.820
    7TRP    HB2 6657   8.465   2.314   3.729
    7TRP    HB3 6658   8.480   2.467   3.811
    7TRP     CG 6659   8.510   2.303   3.928
    7TRP    CD1 6660   8.623   2.344   3.982
    7TRP    HD1 6661   8.671   2.437   3.954
    7TRP    NE1 6662   8.660   2.255   4.080
    7TRP    HE1 6663   8.740   2.266   4.141
    7TRP    CE2 6664   8.582   2.138   4.084
    7TRP    CZ2 6665   8.592   2.017   4.158
    7TRP    HZ2 6666   8.672   2.004   4.230
    7TRP    CH2 6667   8.503   1.912   4.122
    7TRP    HH2 6668   8.523   1.814   4.162
    7TRP    CZ3 6669   8.421   1.930   4.007
    7TRP    HZ3 6670   8.369   1.843   3.967
    7TRP    CE3 6671   8.407   2.055   3.944
    7TRP    HE3 6672   8.346   2.063   3.856
    7TRP    CD2 6673   8.490   2.164   3.978
    7TRP      C 6674   8.245   2.469   3.957
    7TRP      O 6675   8.260   2.588   3.947
    8PRO      N 6676   8.206   2.414   4.073
    8PRO     CD 6677   8.150   2.279   4.098
    8PRO    HD2 6678   8.232   2.216   4.132
    8PRO    HD3 6679   8.103   2.244   4.005
    8PRO     CG 6680   8.058   2.293   4.219
    8PRO    HG2 6681   8.051   2.190   4.255
    8PRO    HG3 6682   7.962   2.335   4.191
    8PRO     CB 6683   8.132   2.396   4.304
    8PRO    HB2 6684   8.215   2.351   4.356
    8PRO    HB3 6685   8.057   2.441   4.368
    8PRO     CA 6686   8.181   2.490   4.195
    8PRO     HA 6687   8.106   2.565   4.171
    8PRO      C 6688   8.303   2.569   4.254
    8PRO      O 6689   8.293   2.635   4.357
    9TRP      N 6690   8.414   2.583   4.181
    9TRP      H 6691   8.417   2.535   4.092
    9TRP     CA 6692   8.532   2.665   4.209
    9TRP     HA 6693   8.517   2.749   4.277
    9TRP     CB 6694   8.628   2.573   4.287
    9TRP    HB2 6695   8.585   2.534   4.379
    9TRP    HB3 6696   8.654   2.489   4.222
    9TRP     CG 6697   8.758   2.632   4.332
    9TRP    CD1 6698   8.883   2.595   4.291
    9TRP    HD1 6699   8.905   2.510   4.229
    9TRP    NE1 6700   8.979   2.664   4.366
    9TRP    HE1 6701   9.076   2.638   4.374
    9TRP    CE2 6702   8.918   2.764   4.443
    9TRP    CZ2 6703   8.968   2.869   4.521
    9TRP    HZ2 6704   9.074   2.883   4.536
    9TRP    CH2 6705   8.879   2.956   4.577
    9TRP    HH2 6706   8.920   3.035   4.638
    9TRP    CZ3 6707   8.745   2.932   4.572
    9TRP    HZ3 6708   8.681   3.010   4.609
    9TRP    CE3 6709   8.691   2.828   4.499
    9TRP    HE3 6710   8.584   2.819   4.495
    9TRP    CD2 6711   8.779   2.741   4.428
    9TRP      C 6712   8.589   2.726   4.082
    9TRP      O 6713   8.572   2.670   3.980
   10ARG      N 6714   8.673   2.827   4.100
   10ARG      H 6715   8.715   2.828   4.192
   10ARG     CA 6716   8.755   2.891   3.994
   10ARG     HA 6717   8.690   2.916   3.911
   10ARG     CB 6718   8.828   3.022   4.037
   10ARG    HB2 6719   8.924   3.002   4.085
   10ARG    HB3 6720   8.842   3.080   3.945
   10ARG     CG 6721   8.753   3.105   4.139
   10ARG    HG2 6722   8.650   3.128   4.112
   10ARG    HG3 6723   8.751   3.048   4.231
   10ARG     CD 6724   8.819   3.237   4.171
   10ARG    HD2 6725   8.924   3.214   4.184
   10ARG    HD3 6726   8.828   3.298   4.080
   10ARG     NE 6727   8.745   3.302   4.287
   10ARG     HE 6728   8.646   3.313   4.282
   10ARG     CZ 6729   8.794   3.333   4.400
   10ARG    NH1 6730   8.919   3.308   4.435
   10ARG   HH11 6731   8.982   3.262   4.371
   10ARG   HH12 6732   8.950   3.351   4.521
   10ARG    NH2 6733   8.724   3.394   4.491
   10ARG   HH21 6734   8.632   3.354   4.498
   10ARG   HH22 6735   8.777   3.408   4.575
   10ARG      C 6736   8.851   2.793   3.926
   10ARG      O 6737   8.893   2.692   3.980
   11ARG      N 6738   8.884   2.822   3.799
   11ARG      H 6739   8.860   2.917   3.774
   11ARG     CA 6740   8.970   2.747   3.706
   11ARG     HA 6741   9.060   2.704   3.752
   11ARG     CB 6742   8.896   2.631   3.630
   11ARG    HB2 6743   8.794   2.654   3.599
   11ARG    HB3 6744   8.943   2.592   3.540
   11ARG     CG 6745   8.873   2.510   3.721
   11ARG    HG2 6746   8.969   2.463   3.744
   11ARG    HG3 6747   8.823   2.534   3.815
   11ARG     CD 6748   8.784   2.411   3.648
   11ARG    HD2 6749   8.756   2.335   3.721
   11ARG    HD3 6750   8.688   2.455   3.623
   11ARG     NE 6751   8.853   2.353   3.528
   11ARG     HE 6752   8.839   2.417   3.450
   11ARG     CZ 6753   8.959   2.273   3.532
   11ARG    NH1 6754   8.985   2.209   3.642
   11ARG   HH11 6755   8.919   2.224   3.717
   11ARG   HH12 6756   9.060   2.141   3.641
   11ARG    NH2 6757   9.033   2.254   3.431
   11ARG   HH21 6758   9.013   2.292   3.340
   11ARG   HH22 6759   9.123   2.212   3.452
   11ARG      C 6760   9.013   2.842   3.597
   11ARG      O 6761   8.957   2.946   3.573
   12LYS      N 6762   9.125   2.803   3.533
   12LYS      H 6763   9.150   2.706   3.548
   12LYS     CA 6764   9.187   2.870   3.418
   12LYS     HA 6765   9.113   2.933   3.370
   12LYS     CB 6766   9.305   2.961   3.466
   12LYS    HB2 6767   9.376   2.888   3.505
   12LYS    HB3 6768   9.348   3.006   3.378
   12LYS     CG 6769   9.276   3.070   3.572
   12LYS    HG2 6770   9.188   3.124   3.537
   12LYS    HG3 6771   9.235   3.029   3.663
   12LYS     CD 6772   9.394   3.162   3.608
   12LYS    HD2 6773   9.426   3.188   3.507
   12LYS    HD3 6774   9.362   3.249   3.666
   12LYS     CE 6775   9.516   3.089   3.663
   12LYS    HE2 6776   9.500   3.042   3.759
   12LYS    HE3 6777   9.546   3.005   3.601
   12LYS     NZ 6778   9.628   3.185   3.654
   12LYS    HZ1 6779   9.624   3.251   3.730
   12LYS    HZ2 6780   9.714   3.134   3.673
   12LYS    HZ3 6781   9.640   3.222   3.561
   12LYS      C 6782   9.238   2.773   3.305
   12LYS      O 6783   9.266   2.659   3.335
   13NHE      N 6784   9.263   2.825   3.189
   13NHE    HN1 6785   9.233   2.922   3.177
   13NHE    HN2 6786   9.302   2.766   3.118
    1ILE      N 6787   7.003   8.837   7.978
    1ILE     H1 6788   6.963   8.861   8.068
    1ILE     H2 6789   6.960   8.887   7.903
    1ILE     H3 6790   7.101   8.863   7.970
    1ILE     CA 6791   6.984   8.691   7.956
    1ILE     HA 6792   7.015   8.669   7.853
    1ILE     CB 6793   7.073   8.600   8.040
    1ILE     HB 6794   7.043   8.499   8.009
    1ILE    CG2 6795   7.215   8.624   7.990
    1ILE   HG21 6796   7.268   8.715   8.021
    1ILE   HG22 6797   7.284   8.550   8.030
    1ILE   HG23 6798   7.221   8.604   7.883
    1ILE    CG1 6799   7.059   8.627   8.190
    1ILE   HG12 6800   6.955   8.644   8.216
    1ILE   HG13 6801   7.124   8.708   8.224
    1ILE    CD1 6802   7.091   8.493   8.256
    1ILE   HD11 6803   7.072   8.494   8.364
    1ILE   HD12 6804   7.028   8.418   8.208
    1ILE   HD13 6805   7.195   8.466   8.246
    1ILE      C 6806   6.837   8.657   7.958
    1ILE      O 6807   6.765   8.722   8.038
    2LEU      N 6808   6.799   8.554   7.881
    2LEU      H 6809   6.873   8.506   7.835
    2LEU     CA 6810   6.660   8.506   7.876
    2LEU     HA 6811   6.595   8.594   7.875
    2LEU     CB 6812   6.638   8.421   7.747
    2LEU    HB2 6813   6.706   8.335   7.749
    2LEU    HB3 6814   6.535   8.386   7.737
    2LEU     CG 6815   6.677   8.487   7.617
    2LEU     HG 6816   6.779   8.522   7.602
    2LEU    CD1 6817   6.642   8.395   7.500
    2LEU   HD11 6818   6.543   8.350   7.504
    2LEU   HD12 6819   6.657   8.457   7.411
    2LEU   HD13 6820   6.715   8.315   7.480
    2LEU    CD2 6821   6.593   8.615   7.609
    2LEU   HD21 6822   6.639   8.687   7.677
    2LEU   HD22 6823   6.598   8.649   7.505
    2LEU   HD23 6824   6.488   8.596   7.629
    2LEU      C 6825   6.630   8.424   8.005
    2LEU      O 6826   6.717   8.360   8.060
    3ARG      N 6827   6.506   8.427   8.060
    3ARG      H 6828   6.440   8.491   8.020
    3ARG     CA 6829   6.464   8.347   8.176
    3ARG     HA 6830   6.558   8.332   8.229
    3ARG     CB 6831   6.376   8.438   8.260
    3ARG    HB2 6832   6.284   8.458   8.205
    3ARG    HB3 6833   6.354   8.388   8.354
    3ARG     CG 6834   6.436   8.572   8.308
    3ARG    HG2 6835   6.447   8.639   8.223
    3ARG    HG3 6836   6.359   8.624   8.366
    3ARG     CD 6837   6.567   8.565   8.389
    3ARG    HD2 6838   6.551   8.518   8.487
    3ARG    HD3 6839   6.646   8.500   8.352
    3ARG     NE 6840   6.626   8.701   8.426
    3ARG     HE 6841   6.564   8.780   8.419
    3ARG     CZ 6842   6.748   8.720   8.472
    3ARG    NH1 6843   6.837   8.626   8.476
    3ARG   HH11 6844   6.802   8.532   8.478
    3ARG   HH12 6845   6.928   8.657   8.509
    3ARG    NH2 6846   6.775   8.839   8.517
    3ARG   HH21 6847   6.711   8.916   8.503
    3ARG   HH22 6848   6.874   8.859   8.519
    3ARG      C 6849   6.423   8.201   8.146
    3ARG      O 6850   6.389   8.128   8.241
    4TRP      N 6851   6.443   8.156   8.021
    4TRP      H 6852   6.498   8.216   7.962
    4TRP     CA 6853   6.437   8.011   7.988
    4TRP     HA 6854   6.419   7.956   8.081
    4TRP     CB 6855   6.314   7.992   7.895
    4TRP    HB2 6856   6.320   7.899   7.841
    4TRP    HB3 6857   6.226   7.981   7.958
    4TRP     CG 6858   6.299   8.105   7.780
    4TRP    CD1 6859   6.383   8.104   7.671
    4TRP    HD1 6860   6.476   8.050   7.661
    4TRP    NE1 6861   6.337   8.197   7.583
    4TRP    HE1 6862   6.364   8.212   7.486
    4TRP    CE2 6863   6.227   8.271   7.631
    4TRP    CZ2 6864   6.150   8.379   7.592
    4TRP    HZ2 6865   6.170   8.431   7.500
    4TRP    CH2 6866   6.043   8.430   7.667
    4TRP    HH2 6867   5.979   8.510   7.631
    4TRP    CZ3 6868   6.017   8.373   7.795
    4TRP    HZ3 6869   5.945   8.410   7.867
    4TRP    CE3 6870   6.098   8.267   7.836
    4TRP    HE3 6871   6.077   8.210   7.925
    4TRP    CD2 6872   6.201   8.210   7.757
    4TRP      C 6873   6.577   7.958   7.934
    4TRP      O 6874   6.657   8.039   7.891
    5PRO      N 6875   6.604   7.823   7.939
    5PRO     CD 6876   6.526   7.718   7.994
    5PRO    HD2 6877   6.422   7.721   7.963
    5PRO    HD3 6878   6.527   7.723   8.103
    5PRO     CG 6879   6.591   7.586   7.951
    5PRO    HG2 6880   6.555   7.562   7.851
    5PRO    HG3 6881   6.578   7.505   8.022
    5PRO     CB 6882   6.745   7.628   7.924
    5PRO    HB2 6883   6.792   7.565   7.849
    5PRO    HB3 6884   6.795   7.630   8.021
    5PRO     CA 6885   6.732   7.778   7.877
    5PRO     HA 6886   6.809   7.836   7.927
    5PRO      C 6887   6.734   7.800   7.726
    5PRO      O 6888   6.645   7.759   7.652
    6TRP      N 6889   6.844   7.862   7.689
    6TRP      H 6890   6.913   7.885   7.759
    6TRP     CA 6891   6.873   7.909   7.549
    6TRP     HA 6892   6.776   7.913   7.500
    6TRP     CB 6893   6.915   8.055   7.538
    6TRP    HB2 6894   6.834   8.121   7.572
    6TRP    HB3 6895   7.005   8.072   7.597
    6TRP     CG 6896   6.951   8.085   7.395
    6TRP    CD1 6897   7.078   8.118   7.355
    6TRP    HD1 6898   7.166   8.117   7.417
    6TRP    NE1 6899   7.082   8.134   7.225
    6TRP    HE1 6900   7.159   8.172   7.172
    6TRP    CE2 6901   6.954   8.124   7.173
    6TRP    CZ2 6902   6.905   8.134   7.037
    6TRP    HZ2 6903   6.960   8.167   6.949
    6TRP    CH2 6904   6.770   8.111   7.010
    6TRP    HH2 6905   6.729   8.119   6.910
    6TRP    CZ3 6906   6.685   8.082   7.114
    6TRP    HZ3 6907   6.578   8.079   7.102
    6TRP    CE3 6908   6.734   8.061   7.241
    6TRP    HE3 6909   6.659   8.057   7.317
    6TRP    CD2 6910   6.869   8.082   7.278
    6TRP      C 6911   6.974   7.820   7.474
    6TRP      O 6912   7.086   7.802   7.517
    7TRP      N 6913   6.934   7.758   7.361
    7TRP      H 6914   6.834   7.762   7.342
    7TRP     CA 6915   7.033   7.708   7.269
    7TRP     HA 6916   7.135   7.727   7.300
    7TRP     CB 6917   7.022   7.555   7.277
    7TRP    HB2 6918   7.024   7.516   7.379
    7TRP    HB3 6919   6.927   7.523   7.233
    7TRP     CG 6920   7.125   7.485   7.204
    7TRP    CD1 6921   7.109   7.381   7.125
    7TRP    HD1 6922   7.011   7.341   7.100
    7TRP    NE1 6923   7.231   7.342   7.076
    7TRP    HE1 6924   7.246   7.269   7.009
    7TRP    CE2 6925   7.340   7.407   7.137
    7TRP    CZ2 6926   7.481   7.390   7.127
    7TRP    HZ2 6927   7.522   7.315   7.061
    7TRP    CH2 6928   7.561   7.464   7.218
    7TRP    HH2 6929   7.665   7.437   7.227
    7TRP    CZ3 6930   7.495   7.540   7.320
    7TRP    HZ3 6931   7.555   7.579   7.402
    7TRP    CE3 6932   7.357   7.562   7.318
    7TRP    HE3 6933   7.311   7.617   7.399
    7TRP    CD2 6934   7.272   7.494   7.227
    7TRP      C 6935   7.008   7.767   7.131
    7TRP      O 6936   6.898   7.764   7.083
    8PRO      N 6937   7.115   7.809   7.060
    8PRO     CD 6938   7.248   7.852   7.108
    8PRO    HD2 6939   7.315   7.766   7.098
    8PRO    HD3 6940   7.237   7.888   7.211
    8PRO     CG 6941   7.299   7.953   7.005
    8PRO    HG2 6942   7.407   7.952   7.023
    8PRO    HG3 6943   7.255   8.051   7.021
    8PRO     CB 6944   7.245   7.897   6.874
    8PRO    HB2 6945   7.304   7.814   6.840
    8PRO    HB3 6946   7.240   7.981   6.806
    8PRO     CA 6947   7.108   7.850   6.920
    8PRO     HA 6948   7.035   7.931   6.915
    8PRO      C 6949   7.059   7.742   6.818
    8PRO      O 6950   7.051   7.767   6.697
    9TRP      N 6951   7.006   7.628   6.863
    9TRP      H 6952   7.005   7.613   6.963
    9TRP     CA 6953   6.940   7.522   6.786
    9TRP     HA 6954   6.900   7.550   6.689
    9TRP     CB 6955   7.053   7.423   6.750
    9TRP    HB2 6956   7.133   7.468   6.692
    9TRP    HB3 6957   7.094   7.383   6.843
    9TRP     CG 6958   7.015   7.303   6.668
    9TRP    CD1 6959   7.020   7.172   6.706
    9TRP    HD1 6960   7.064   7.137   6.799
    9TRP    NE1 6961   6.990   7.090   6.598
    9TRP    HE1 6962   7.010   6.991   6.592
    9TRP    CE2 6963   6.942   7.166   6.490
    9TRP    CZ2 6964   6.884   7.133   6.367
    9TRP    HZ2 6965   6.873   7.031   6.336
    9TRP    CH2 6966   6.839   7.235   6.288
    9TRP    HH2 6967   6.797   7.207   6.192
    9TRP    CZ3 6968   6.866   7.365   6.319
    9TRP    HZ3 6969   6.819   7.440   6.257
    9TRP    CE3 6970   6.926   7.403   6.438
    9TRP    HE3 6971   6.938   7.508   6.458
    9TRP    CD2 6972   6.963   7.301   6.530
    9TRP      C 6973   6.822   7.463   6.862
    9TRP      O 6974   6.825   7.466   6.980
   10ARG      N 6975   6.738   7.391   6.790
   10ARG      H 6976   6.778   7.357   6.704
   10ARG     CA 6977   6.627   7.309   6.843
   10ARG     HA 6978   6.569   7.370   6.912
   10ARG     CB 6979   6.528   7.253   6.736
   10ARG    HB2 6980   6.562   7.159   6.692
   10ARG    HB3 6981   6.432   7.239   6.787
   10ARG     CG 6982   6.508   7.344   6.616
   10ARG    HG2 6983   6.481   7.447   6.641
   10ARG    HG3 6984   6.602   7.347   6.563
   10ARG     CD 6985   6.403   7.295   6.519
   10ARG    HD2 6986   6.423   7.189   6.506
   10ARG    HD3 6987   6.306   7.285   6.569
   10ARG     NE 6988   6.406   7.383   6.395
   10ARG     HE 6989   6.400   7.483   6.406
   10ARG     CZ 6990   6.430   7.346   6.276
   10ARG    NH1 6991   6.461   7.222   6.242
   10ARG   HH11 6992   6.467   7.151   6.313
   10ARG   HH12 6993   6.463   7.202   6.144
   10ARG    NH2 6994   6.423   7.429   6.176
   10ARG   HH21 6995   6.467   7.517   6.199
   10ARG   HH22 6996   6.448   7.384   6.090
   10ARG      C 6997   6.674   7.198   6.938
   10ARG      O 6998   6.786   7.150   6.933
   11ARG      N 6999   6.586   7.159   7.031
   11ARG      H 7000   6.492   7.192   7.012
   11ARG     CA 7001   6.603   7.059   7.138
   11ARG     HA 7002   6.658   6.969   7.108
   11ARG     CB 7003   6.673   7.115   7.268
   11ARG    HB2 7004   6.644   7.216   7.296
   11ARG    HB3 7005   6.661   7.057   7.360
   11ARG     CG 7006   6.823   7.131   7.247
   11ARG    HG2 7007   6.870   7.033   7.238
   11ARG    HG3 7008   6.850   7.190   7.160
   11ARG     CD 7009   6.881   7.204   7.367
   11ARG    HD2 7010   6.984   7.229   7.343
   11ARG    HD3 7011   6.836   7.302   7.380
   11ARG     NE 7012   6.870   7.121   7.492
   11ARG     HE 7013   6.778   7.136   7.532
   11ARG     CZ 7014   6.936   7.008   7.514
   11ARG    NH1 7015   7.044   6.983   7.444
   11ARG   HH11 7016   7.070   7.055   7.379
   11ARG   HH12 7017   7.098   6.902   7.469
   11ARG    NH2 7018   6.901   6.925   7.603
   11ARG   HH21 7019   6.825   6.942   7.667
   11ARG   HH22 7020   6.943   6.833   7.594
   11ARG      C 7021   6.465   7.018   7.185
   11ARG      O 7022   6.365   7.083   7.163
   12LYS      N 7023   6.463   6.899   7.246
   12LYS      H 7024   6.554   6.865   7.275
   12LYS     CA 7025   6.345   6.836   7.308
   12LYS     HA 7026   6.272   6.913   7.330
   12LYS     CB 7027   6.282   6.732   7.210
   12LYS    HB2 7028   6.360   6.657   7.202
   12LYS    HB3 7029   6.197   6.688   7.262
   12LYS     CG 7030   6.238   6.780   7.070
   12LYS    HG2 7031   6.179   6.870   7.085
   12LYS    HG3 7032   6.320   6.823   7.014
   12LYS     CD 7033   6.168   6.675   6.981
   12LYS    HD2 7034   6.094   6.639   7.054
   12LYS    HD3 7035   6.121   6.720   6.894
   12LYS     CE 7036   6.251   6.551   6.953
   12LYS    HE2 7037   6.339   6.569   6.893
   12LYS    HE3 7038   6.293   6.508   7.043
   12LYS     NZ 7039   6.156   6.449   6.904
   12LYS    HZ1 7040   6.134   6.466   6.806
   12LYS    HZ2 7041   6.204   6.360   6.901
   12LYS    HZ3 7042   6.078   6.435   6.966
   12LYS      C 7043   6.374   6.767   7.447
   12LYS      O 7044   6.486   6.730   7.471
   13NHE      N 7045   6.271   6.739   7.521
   13NHE    HN1 7046   6.182   6.778   7.490
   13NHE    HN2 7047   6.287   6.689   7.607
    1ILE      N 7048   7.635   6.034   4.950
    1ILE     H1 7049   7.648   6.045   5.049
    1ILE     H2 7050   7.558   5.972   4.929
    1ILE     H3 7051   7.608   6.119   4.903
    1ILE     CA 7052   7.759   5.976   4.892
    1ILE     HA 7053   7.738   5.951   4.788
    1ILE     CB 7054   7.877   6.072   4.883
    1ILE     HB 7055   7.956   6.011   4.839
    1ILE    CG2 7056   7.836   6.177   4.780
    1ILE   HG21 7057   7.766   6.256   4.809
    1ILE   HG22 7058   7.921   6.240   4.751
    1ILE   HG23 7059   7.812   6.130   4.685
    1ILE    CG1 7060   7.912   6.134   5.018
    1ILE   HG12 7061   7.906   6.060   5.097
    1ILE   HG13 7062   7.852   6.223   5.041
    1ILE    CD1 7063   8.061   6.164   5.009
    1ILE   HD11 7064   8.104   6.197   5.104
    1ILE   HD12 7065   8.111   6.072   4.977
    1ILE   HD13 7066   8.083   6.244   4.939
    1ILE      C 7067   7.790   5.843   4.956
    1ILE      O 7068   7.761   5.831   5.079
    2LEU      N 7069   7.852   5.753   4.879
    2LEU      H 7070   7.879   5.786   4.788
    2LEU     CA 7071   7.893   5.621   4.928
    2LEU     HA 7072   7.811   5.582   4.990
    2LEU     CB 7073   7.919   5.525   4.809
    2LEU    HB2 7074   7.999   5.566   4.747
    2LEU    HB3 7075   7.946   5.424   4.840
    2LEU     CG 7076   7.807   5.513   4.707
    2LEU     HG 7077   7.770   5.601   4.657
    2LEU    CD1 7078   7.844   5.410   4.601
    2LEU   HD11 7079   7.886   5.316   4.638
    2LEU   HD12 7080   7.751   5.395   4.544
    2LEU   HD13 7081   7.909   5.447   4.522
    2LEU    CD2 7082   7.685   5.463   4.788
    2LEU   HD21 7083   7.647   5.549   4.844
    2LEU   HD22 7084   7.613   5.427   4.714
    2LEU   HD23 7085   7.710   5.378   4.850
    2LEU      C 7086   8.020   5.636   5.019
    2LEU      O 7087   8.101   5.723   4.996
    3ARG      N 7088   8.038   5.555   5.125
    3ARG      H 7089   7.962   5.493   5.149
    3ARG     CA 7090   8.157   5.555   5.210
    3ARG     HA 7091   8.193   5.657   5.201
    3ARG     CB 7092   8.106   5.536   5.353
    3ARG    HB2 7093   8.065   5.436   5.362
    3ARG    HB3 7094   8.190   5.550   5.422
    3ARG     CG 7095   8.004   5.638   5.407
    3ARG    HG2 7096   7.908   5.623   5.357
    3ARG    HG3 7097   7.978   5.609   5.509
    3ARG     CD 7098   8.044   5.787   5.403
    3ARG    HD2 7099   8.126   5.808   5.473
    3ARG    HD3 7100   8.089   5.825   5.311
    3ARG     NE 7101   7.934   5.884   5.449
    3ARG     HE 7102   7.859   5.844   5.501
    3ARG     CZ 7103   7.937   6.015   5.431
    3ARG    NH1 7104   8.026   6.073   5.357
    3ARG   HH11 7105   8.112   6.024   5.343
    3ARG   HH12 7106   8.011   6.173   5.348
    3ARG    NH2 7107   7.846   6.083   5.493
    3ARG   HH21 7108   7.769   6.037   5.541
    3ARG   HH22 7109   7.830   6.174   5.452
    3ARG      C 7110   8.278   5.475   5.158
    3ARG      O 7111   8.383   5.474   5.226
    4TRP      N 7112   8.269   5.426   5.034
    4TRP      H 7113   8.191   5.459   4.979
    4TRP     CA 7114   8.389   5.375   4.960
    4TRP     HA 7115   8.476   5.391   5.024
    4TRP     CB 7116   8.368   5.223   4.942
    4TRP    HB2 7117   8.432   5.183   4.865
    4TRP    HB3 7118   8.403   5.172   5.033
    4TRP     CG 7119   8.218   5.180   4.897
    4TRP    CD1 7120   8.176   5.203   4.769
    4TRP    HD1 7121   8.222   5.267   4.695
    4TRP    NE1 7122   8.055   5.142   4.753
    4TRP    HE1 7123   8.003   5.124   4.667
    4TRP    CE2 7124   8.006   5.085   4.872
    4TRP    CZ2 7125   7.890   5.023   4.917
    4TRP    HZ2 7126   7.806   5.009   4.851
    4TRP    CH2 7127   7.872   4.976   5.047
    4TRP    HH2 7128   7.784   4.921   5.079
    4TRP    CZ3 7129   7.976   5.000   5.142
    4TRP    HZ3 7130   7.970   4.978   5.249
    4TRP    CE3 7131   8.090   5.067   5.098
    4TRP    HE3 7132   8.178   5.077   5.160
    4TRP    CD2 7133   8.112   5.108   4.964
    4TRP      C 7134   8.418   5.460   4.829
    4TRP      O 7135   8.327   5.527   4.783
    5PRO      N 7136   8.543   5.458   4.774
    5PRO     CD 7137   8.661   5.394   4.821
    5PRO    HD2 7138   8.645   5.289   4.850
    5PRO    HD3 7139   8.700   5.445   4.908
    5PRO     CG 7140   8.765   5.402   4.709
    5PRO    HG2 7141   8.747   5.320   4.639
    5PRO    HG3 7142   8.868   5.407   4.744
    5PRO     CB 7143   8.718   5.531   4.624
    5PRO    HB2 7144   8.745   5.524   4.519
    5PRO    HB3 7145   8.755   5.619   4.677
    5PRO     CA 7146   8.561   5.530   4.644
    5PRO     HA 7147   8.529   5.632   4.665
    5PRO      C 7148   8.480   5.468   4.531
    5PRO      O 7149   8.487   5.348   4.503
    6TRP      N 7150   8.410   5.558   4.467
    6TRP      H 7151   8.418   5.655   4.496
    6TRP     CA 7152   8.311   5.530   4.358
    6TRP     HA 7153   8.286   5.424   4.369
    6TRP     CB 7154   8.173   5.592   4.378
    6TRP    HB2 7155   8.126   5.551   4.468
    6TRP    HB3 7156   8.182   5.699   4.385
    6TRP     CG 7157   8.089   5.564   4.257
    6TRP    CD1 7158   8.044   5.661   4.172
    6TRP    HD1 7159   8.071   5.766   4.177
    6TRP    NE1 7160   7.977   5.609   4.072
    6TRP    HE1 7161   7.922   5.659   4.005
    6TRP    CE2 7162   7.964   5.473   4.092
    6TRP    CZ2 7163   7.900   5.371   4.012
    6TRP    HZ2 7164   7.835   5.384   3.926
    6TRP    CH2 7165   7.908   5.236   4.051
    6TRP    HH2 7166   7.861   5.157   3.995
    6TRP    CZ3 7167   7.976   5.204   4.167
    6TRP    HZ3 7168   7.972   5.106   4.210
    6TRP    CE3 7169   8.047   5.301   4.235
    6TRP    HE3 7170   8.080   5.269   4.333
    6TRP    CD2 7171   8.043   5.438   4.204
    6TRP      C 7172   8.364   5.564   4.217
    6TRP      O 7173   8.398   5.677   4.188
    7TRP      N 7174   8.374   5.464   4.126
    7TRP      H 7175   8.362   5.370   4.163
    7TRP     CA 7176   8.384   5.497   3.986
    7TRP     HA 7177   8.381   5.604   3.966
    7TRP     CB 7178   8.527   5.460   3.946
    7TRP    HB2 7179   8.604   5.499   4.013
    7TRP    HB3 7180   8.538   5.351   3.948
    7TRP     CG 7181   8.564   5.500   3.812
    7TRP    CD1 7182   8.627   5.428   3.722
    7TRP    HD1 7183   8.653   5.324   3.738
    7TRP    NE1 7184   8.644   5.503   3.609
    7TRP    HE1 7185   8.685   5.470   3.523
    7TRP    CE2 7186   8.610   5.638   3.624
    7TRP    CZ2 7187   8.624   5.752   3.540
    7TRP    HZ2 7188   8.666   5.742   3.440
    7TRP    CH2 7189   8.592   5.879   3.597
    7TRP    HH2 7190   8.622   5.967   3.542
    7TRP    CZ3 7191   8.564   5.885   3.736
    7TRP    HZ3 7192   8.561   5.982   3.785
    7TRP    CE3 7193   8.541   5.769   3.812
    7TRP    HE3 7194   8.523   5.778   3.918
    7TRP    CD2 7195   8.566   5.640   3.760
    7TRP      C 7196   8.274   5.425   3.910
    7TRP      O 7197   8.257   5.308   3.926
    8PRO      N 7198   8.209   5.494   3.814
    8PRO     CD 7199   8.190   5.640   3.800
    8PRO    HD2 7200   8.265   5.675   3.729
    8PRO    HD3 7201   8.198   5.685   3.899
    8PRO     CG 7202   8.057   5.658   3.727
    8PRO    HG2 7203   8.066   5.760   3.686
    8PRO    HG3 7204   7.973   5.648   3.796
    8PRO     CB 7205   8.055   5.540   3.631
    8PRO    HB2 7206   8.118   5.558   3.546
    8PRO    HB3 7207   7.951   5.521   3.608
    8PRO     CA 7208   8.115   5.432   3.721
    8PRO     HA 7209   8.038   5.384   3.781
    8PRO      C 7210   8.172   5.320   3.627
    8PRO      O 7211   8.101   5.263   3.544
    9TRP      N 7212   8.294   5.271   3.651
    9TRP      H 7213   8.348   5.313   3.725
    9TRP     CA 7214   8.360   5.157   3.586
    9TRP     HA 7215   8.295   5.084   3.539
    9TRP     CB 7216   8.437   5.217   3.467
    9TRP    HB2 7217   8.374   5.269   3.396
    9TRP    HB3 7218   8.512   5.286   3.506
    9TRP     CG 7219   8.514   5.122   3.380
    9TRP    CD1 7220   8.649   5.116   3.363
    9TRP    HD1 7221   8.719   5.189   3.402
    9TRP    NE1 7222   8.681   5.023   3.264
    9TRP    HE1 7223   8.769   5.017   3.215
    9TRP    CE2 7224   8.567   4.949   3.229
    9TRP    CZ2 7225   8.547   4.835   3.149
    9TRP    HZ2 7226   8.629   4.789   3.095
    9TRP    CH2 7227   8.422   4.782   3.144
    9TRP    HH2 7228   8.408   4.695   3.079
    9TRP    CZ3 7229   8.315   4.846   3.199
    9TRP    HZ3 7230   8.222   4.793   3.199
    9TRP    CE3 7231   8.329   4.960   3.276
    9TRP    HE3 7232   8.241   5.002   3.322
    9TRP    CD2 7233   8.460   5.013   3.296
    9TRP      C 7234   8.444   5.078   3.686
    9TRP      O 7235   8.488   5.134   3.779
   10ARG      N 7236   8.479   4.956   3.646
   10ARG      H 7237   8.477   4.945   3.546
   10ARG     CA 7238   8.575   4.867   3.716
   10ARG     HA 7239   8.546   4.862   3.821
   10ARG     CB 7240   8.582   4.721   3.663
   10ARG    HB2 7241   8.651   4.711   3.578
   10ARG    HB3 7242   8.615   4.659   3.746
   10ARG     CG 7243   8.450   4.669   3.608
   10ARG    HG2 7244   8.366   4.678   3.677
   10ARG    HG3 7245   8.427   4.725   3.520
   10ARG     CD 7246   8.455   4.523   3.567
   10ARG    HD2 7247   8.547   4.512   3.511
   10ARG    HD3 7248   8.483   4.460   3.652
   10ARG     NE 7249   8.324   4.488   3.497
   10ARG     HE 7250   8.238   4.508   3.543
   10ARG     CZ 7251   8.311   4.446   3.378
   10ARG    NH1 7252   8.411   4.432   3.293
   10ARG   HH11 7253   8.505   4.454   3.322
   10ARG   HH12 7254   8.391   4.383   3.208
   10ARG    NH2 7255   8.195   4.412   3.330
   10ARG   HH21 7256   8.124   4.479   3.356
   10ARG   HH22 7257   8.202   4.385   3.234
   10ARG      C 7258   8.715   4.929   3.730
   10ARG      O 7259   8.758   5.013   3.653
   11ARG      N 7260   8.787   4.887   3.835
   11ARG      H 7261   8.749   4.804   3.878
   11ARG     CA 7262   8.922   4.930   3.877
   11ARG     HA 7263   8.993   4.944   3.795
   11ARG     CB 7264   8.924   5.061   3.964
   11ARG    HB2 7265   8.842   5.070   4.035
   11ARG    HB3 7266   9.013   5.081   4.023
   11ARG     CG 7267   8.902   5.185   3.877
   11ARG    HG2 7268   8.988   5.200   3.813
   11ARG    HG3 7269   8.813   5.181   3.815
   11ARG     CD 7270   8.884   5.305   3.969
   11ARG    HD2 7271   8.852   5.388   3.906
   11ARG    HD3 7272   8.798   5.292   4.035
   11ARG     NE 7273   9.010   5.336   4.045
   11ARG     HE 7274   9.011   5.277   4.128
   11ARG     CZ 7275   9.123   5.379   3.990
   11ARG    NH1 7276   9.119   5.435   3.872
   11ARG   HH11 7277   9.027   5.443   3.832
   11ARG   HH12 7278   9.204   5.476   3.836
   11ARG    NH2 7279   9.234   5.372   4.050
   11ARG   HH21 7280   9.243   5.339   4.145
   11ARG   HH22 7281   9.315   5.384   3.991
   11ARG      C 7282   8.976   4.823   3.969
   11ARG      O 7283   8.907   4.741   4.025
   12LYS      N 7284   9.110   4.824   3.978
   12LYS      H 7285   9.154   4.909   3.945
   12LYS     CA 7286   9.192   4.737   4.065
   12LYS     HA 7287   9.129   4.700   4.146
   12LYS     CB 7288   9.247   4.616   3.984
   12LYS    HB2 7289   9.313   4.664   3.913
   12LYS    HB3 7290   9.307   4.557   4.052
   12LYS     CG 7291   9.146   4.524   3.912
   12LYS    HG2 7292   9.069   4.499   3.984
   12LYS    HG3 7293   9.085   4.579   3.840
   12LYS     CD 7294   9.206   4.401   3.841
   12LYS    HD2 7295   9.267   4.363   3.923
   12LYS    HD3 7296   9.129   4.330   3.810
   12LYS     CE 7297   9.309   4.434   3.734
   12LYS    HE2 7298   9.269   4.486   3.648
   12LYS    HE3 7299   9.385   4.503   3.770
   12LYS     NZ 7300   9.382   4.308   3.708
   12LYS    HZ1 7301   9.327   4.248   3.647
   12LYS    HZ2 7302   9.463   4.330   3.651
   12LYS    HZ3 7303   9.419   4.266   3.792
   12LYS      C 7304   9.310   4.811   4.138
   12LYS      O 7305   9.356   4.912   4.088
   13NHE      N 7306   9.365   4.751   4.239
   13NHE    HN1 7307   9.316   4.668   4.272
   13NHE    HN2 7308   9.445   4.793   4.281
    1ILE      N 7309   8.343  10.141   5.463
    1ILE     H1 7310   8.313  10.226   5.418
    1ILE     H2 7311   8.329  10.144   5.562
    1ILE     H3 7312   8.290  10.060   5.435
    1ILE     CA 7313   8.489  10.123   5.436
    1ILE     HA 7314   8.523  10.039   5.497
    1ILE     CB 7315   8.524  10.081   5.294
    1ILE     HB 7316   8.633  10.074   5.296
    1ILE    CG2 7317   8.468   9.940   5.278
    1ILE   HG21 7318   8.361   9.926   5.263
    1ILE   HG22 7319   8.504   9.893   5.187
    1ILE   HG23 7320   8.510   9.874   5.355
    1ILE    CG1 7321   8.468  10.178   5.190
    1ILE   HG12 7322   8.480  10.280   5.222
    1ILE   HG13 7323   8.365  10.154   5.161
    1ILE    CD1 7324   8.565  10.166   5.072
    1ILE   HD11 7325   8.545  10.240   4.994
    1ILE   HD12 7326   8.665  10.182   5.112
    1ILE   HD13 7327   8.559  10.070   5.022
    1ILE      C 7328   8.566  10.241   5.489
    1ILE      O 7329   8.511  10.354   5.481
    2LEU      N 7330   8.691  10.216   5.532
    2LEU      H 7331   8.723  10.122   5.517
    2LEU     CA 7332   8.781  10.321   5.581
    2LEU     HA 7333   8.721  10.388   5.644
    2LEU     CB 7334   8.896  10.258   5.664
    2LEU    HB2 7335   8.953  10.190   5.601
    2LEU    HB3 7336   8.964  10.332   5.706
    2LEU     CG 7337   8.854  10.165   5.776
    2LEU     HG 7338   8.793  10.078   5.755
    2LEU    CD1 7339   8.977  10.117   5.853
    2LEU   HD11 7340   9.050  10.195   5.879
    2LEU   HD12 7341   8.937  10.067   5.941
    2LEU   HD13 7342   9.032  10.035   5.807
    2LEU    CD2 7343   8.765  10.250   5.868
    2LEU   HD21 7344   8.668  10.260   5.819
    2LEU   HD22 7345   8.757  10.195   5.963
    2LEU   HD23 7346   8.812  10.345   5.893
    2LEU      C 7347   8.835  10.404   5.460
    2LEU      O 7348   8.853  10.351   5.353
    3ARG      N 7349   8.859  10.536   5.474
    3ARG      H 7350   8.831  10.579   5.560
    3ARG     CA 7351   8.919  10.621   5.370
    3ARG     HA 7352   8.889  10.570   5.279
    3ARG     CB 7353   8.843  10.753   5.376
    3ARG    HB2 7354   8.868  10.803   5.469
    3ARG    HB3 7355   8.874  10.815   5.291
    3ARG     CG 7356   8.690  10.750   5.358
    3ARG    HG2 7357   8.645  10.705   5.447
    3ARG    HG3 7358   8.653  10.852   5.366
    3ARG     CD 7359   8.635  10.683   5.230
    3ARG    HD2 7360   8.660  10.742   5.141
    3ARG    HD3 7361   8.678  10.588   5.200
    3ARG     NE 7362   8.483  10.674   5.223
    3ARG     HE 7363   8.432  10.734   5.286
    3ARG     CZ 7364   8.415  10.601   5.137
    3ARG    NH1 7365   8.472  10.516   5.059
    3ARG   HH11 7366   8.569  10.531   5.039
    3ARG   HH12 7367   8.407  10.462   5.002
    3ARG    NH2 7368   8.287  10.620   5.132
    3ARG   HH21 7369   8.240  10.678   5.201
    3ARG   HH22 7370   8.236  10.543   5.093
    3ARG      C 7371   9.072  10.618   5.359
    3ARG      O 7372   9.128  10.686   5.271
    4TRP      N 7373   9.137  10.527   5.434
    4TRP      H 7374   9.078  10.458   5.479
    4TRP     CA 7375   9.280  10.492   5.411
    4TRP     HA 7376   9.314  10.548   5.323
    4TRP     CB 7377   9.358  10.541   5.535
    4TRP    HB2 7378   9.455  10.493   5.541
    4TRP    HB3 7379   9.382  10.647   5.521
    4TRP     CG 7380   9.287  10.510   5.677
    4TRP    CD1 7381   9.286  10.381   5.726
    4TRP    HD1 7382   9.309  10.290   5.672
    4TRP    NE1 7383   9.237  10.385   5.853
    4TRP    HE1 7384   9.238  10.313   5.924
    4TRP    CE2 7385   9.193  10.514   5.891
    4TRP    CZ2 7386   9.127  10.573   5.998
    4TRP    HZ2 7387   9.095  10.515   6.082
    4TRP    CH2 7388   9.097  10.710   6.005
    4TRP    HH2 7389   9.053  10.756   6.092
    4TRP    CZ3 7390   9.128  10.792   5.892
    4TRP    HZ3 7391   9.100  10.896   5.881
    4TRP    CE3 7392   9.189  10.730   5.783
    4TRP    HE3 7393   9.227  10.787   5.699
    4TRP    CD2 7394   9.227  10.594   5.779
    4TRP      C 7395   9.297  10.339   5.371
    4TRP      O 7396   9.207  10.262   5.399
    5PRO      N 7397   9.410  10.299   5.304
    5PRO     CD 7398   9.518  10.377   5.257
    5PRO    HD2 7399   9.557  10.448   5.331
    5PRO    HD3 7400   9.488  10.436   5.170
    5PRO     CG 7401   9.629  10.281   5.214
    5PRO    HG2 7402   9.686  10.253   5.302
    5PRO    HG3 7403   9.691  10.317   5.132
    5PRO     CB 7404   9.548  10.145   5.180
    5PRO    HB2 7405   9.608  10.056   5.197
    5PRO    HB3 7406   9.508  10.156   5.080
    5PRO     CA 7407   9.426  10.153   5.280
    5PRO     HA 7408   9.336  10.124   5.225
    5PRO      C 7409   9.440  10.074   5.409
    5PRO      O 7410   9.524  10.101   5.495
    6TRP      N 7411   9.357   9.971   5.412
    6TRP      H 7412   9.298   9.955   5.332
    6TRP     CA 7413   9.338   9.879   5.529
    6TRP     HA 7414   9.377   9.934   5.615
    6TRP     CB 7415   9.193   9.860   5.572
    6TRP    HB2 7416   9.151   9.956   5.606
    6TRP    HB3 7417   9.135   9.820   5.490
    6TRP     CG 7418   9.188   9.758   5.682
    6TRP    CD1 7419   9.127   9.636   5.670
    6TRP    HD1 7420   9.084   9.597   5.578
    6TRP    NE1 7421   9.141   9.565   5.778
    6TRP    HE1 7422   9.095   9.479   5.800
    6TRP    CE2 7423   9.204   9.642   5.875
    6TRP    CZ2 7424   9.242   9.611   6.011
    6TRP    HZ2 7425   9.215   9.524   6.070
    6TRP    CH2 7426   9.313   9.705   6.087
    6TRP    HH2 7427   9.342   9.687   6.189
    6TRP    CZ3 7428   9.342   9.828   6.030
    6TRP    HZ3 7429   9.382   9.910   6.089
    6TRP    CE3 7430   9.316   9.851   5.898
    6TRP    HE3 7431   9.325   9.955   5.869
    6TRP    CD2 7432   9.244   9.763   5.814
    6TRP      C 7433   9.405   9.742   5.511
    6TRP      O 7434   9.375   9.669   5.418
    7TRP      N 7435   9.501   9.705   5.598
    7TRP      H 7436   9.534   9.778   5.661
    7TRP     CA 7437   9.538   9.566   5.609
    7TRP     HA 7438   9.480   9.500   5.544
    7TRP     CB 7439   9.679   9.556   5.551
    7TRP    HB2 7440   9.690   9.604   5.453
    7TRP    HB3 7441   9.749   9.606   5.618
    7TRP     CG 7442   9.729   9.421   5.537
    7TRP    CD1 7443   9.847   9.376   5.571
    7TRP    HD1 7444   9.921   9.438   5.620
    7TRP    NE1 7445   9.856   9.243   5.540
    7TRP    HE1 7446   9.934   9.184   5.560
    7TRP    CE2 7447   9.747   9.195   5.465
    7TRP    CZ2 7448   9.720   9.070   5.402
    7TRP    HZ2 7449   9.791   8.989   5.409
    7TRP    CH2 7450   9.605   9.063   5.319
    7TRP    HH2 7451   9.594   8.978   5.254
    7TRP    CZ3 7452   9.532   9.184   5.294
    7TRP    HZ3 7453   9.458   9.184   5.215
    7TRP    CE3 7454   9.556   9.301   5.367
    7TRP    HE3 7455   9.502   9.391   5.343
    7TRP    CD2 7456   9.667   9.313   5.454
    7TRP      C 7457   9.523   9.521   5.753
    7TRP      O 7458   9.573   9.586   5.841
    8PRO      N 7459   9.468   9.400   5.777
    8PRO     CD 7460   9.375   9.322   5.693
    8PRO    HD2 7461   9.434   9.249   5.640
    8PRO    HD3 7462   9.321   9.392   5.629
    8PRO     CG 7463   9.290   9.240   5.790
    8PRO    HG2 7464   9.252   9.160   5.726
    8PRO    HG3 7465   9.210   9.301   5.834
    8PRO     CB 7466   9.389   9.206   5.901
    8PRO    HB2 7467   9.455   9.126   5.870
    8PRO    HB3 7468   9.330   9.187   5.989
    8PRO     CA 7469   9.465   9.338   5.909
    8PRO     HA 7470   9.416   9.408   5.977
    8PRO      C 7471   9.605   9.307   5.975
    8PRO      O 7472   9.613   9.253   6.085
    9TRP      N 7473   9.715   9.358   5.920
    9TRP      H 7474   9.706   9.410   5.835
    9TRP     CA 7475   9.852   9.355   5.973
    9TRP     HA 7476   9.862   9.341   6.081
    9TRP     CB 7477   9.916   9.228   5.915
    9TRP    HB2 7478   9.862   9.137   5.941
    9TRP    HB3 7479   9.917   9.237   5.806
    9TRP     CG 7480  10.057   9.197   5.954
    9TRP    CD1 7481  10.166   9.194   5.873
    9TRP    HD1 7482  10.163   9.202   5.765
    9TRP    NE1 7483  10.277   9.148   5.945
    9TRP    HE1 7484  10.363   9.113   5.903
    9TRP    CE2 7485  10.248   9.141   6.082
    9TRP    CZ2 7486  10.326   9.118   6.195
    9TRP    HZ2 7487  10.431   9.096   6.188
    9TRP    CH2 7488  10.265   9.128   6.318
    9TRP    HH2 7489  10.327   9.108   6.404
    9TRP    CZ3 7490  10.130   9.142   6.328
    9TRP    HZ3 7491  10.091   9.159   6.427
    9TRP    CE3 7492  10.048   9.162   6.218
    9TRP    HE3 7493   9.943   9.179   6.235
    9TRP    CD2 7494  10.108   9.166   6.089
    9TRP      C 7495   9.926   9.485   5.944
    9TRP      O 7496   9.895   9.547   5.849
   10ARG      N 7497  10.036   9.506   6.015
   10ARG      H 7498  10.075   9.421   6.053
   10ARG     CA 7499  10.134   9.614   5.993
   10ARG     HA 7500  10.081   9.708   5.986
   10ARG     CB 7501  10.242   9.630   6.104
   10ARG    HB2 7502  10.328   9.564   6.089
   10ARG    HB3 7503  10.274   9.735   6.101
   10ARG     CG 7504  10.193   9.596   6.244
   10ARG    HG2 7505  10.102   9.647   6.273
   10ARG    HG3 7506  10.173   9.490   6.245
   10ARG     CD 7507  10.295   9.623   6.352
   10ARG    HD2 7508  10.389   9.584   6.314
   10ARG    HD3 7509  10.323   9.729   6.352
   10ARG     NE 7510  10.242   9.567   6.483
   10ARG     HE 7511  10.150   9.594   6.515
   10ARG     CZ 7512  10.297   9.478   6.556
   10ARG    NH1 7513  10.408   9.415   6.523
   10ARG   HH11 7514  10.455   9.438   6.436
   10ARG   HH12 7515  10.450   9.359   6.594
   10ARG    NH2 7516  10.246   9.442   6.670
   10ARG   HH21 7517  10.146   9.431   6.663
   10ARG   HH22 7518  10.301   9.369   6.711
   10ARG      C 7519  10.198   9.609   5.853
   10ARG      O 7520  10.208   9.506   5.788
   11ARG      N 7521  10.240   9.726   5.804
   11ARG      H 7522  10.245   9.799   5.874
   11ARG     CA 7523  10.301   9.755   5.672
   11ARG     HA 7524  10.373   9.680   5.639
   11ARG     CB 7525  10.197   9.775   5.556
   11ARG    HB2 7526  10.107   9.829   5.584
   11ARG    HB3 7527  10.232   9.825   5.466
   11ARG     CG 7528  10.139   9.641   5.510
   11ARG    HG2 7529  10.216   9.583   5.460
   11ARG    HG3 7530  10.097   9.581   5.590
   11ARG     CD 7531  10.025   9.669   5.413
   11ARG    HD2 7532   9.975   9.574   5.395
   11ARG    HD3 7533   9.946   9.728   5.460
   11ARG     NE 7534  10.075   9.732   5.286
   11ARG     HE 7535  10.082   9.833   5.302
   11ARG     CZ 7536  10.153   9.672   5.197
   11ARG    NH1 7537  10.158   9.541   5.195
   11ARG   HH11 7538  10.098   9.496   5.262
   11ARG   HH12 7539  10.209   9.497   5.120
   11ARG    NH2 7540  10.219   9.737   5.110
   11ARG   HH21 7541  10.213   9.837   5.100
   11ARG   HH22 7542  10.292   9.684   5.065
   11ARG      C 7543  10.372   9.888   5.683
   11ARG      O 7544  10.349   9.969   5.770
   12LYS      N 7545  10.467   9.905   5.591
   12LYS      H 7546  10.463   9.840   5.513
   12LYS     CA 7547  10.548  10.026   5.571
   12LYS     HA 7548  10.496  10.110   5.615
   12LYS     CB 7549  10.687  10.010   5.641
   12LYS    HB2 7550  10.733   9.930   5.584
   12LYS    HB3 7551  10.743  10.102   5.622
   12LYS     CG 7552  10.690   9.979   5.792
   12LYS    HG2 7553  10.623  10.050   5.840
   12LYS    HG3 7554  10.637   9.887   5.816
   12LYS     CD 7555  10.830   9.974   5.858
   12LYS    HD2 7556  10.869  10.068   5.819
   12LYS    HD3 7557  10.824   9.973   5.967
   12LYS     CE 7558  10.924   9.871   5.797
   12LYS    HE2 7559  10.893   9.768   5.812
   12LYS    HE3 7560  10.928   9.878   5.688
   12LYS     NZ 7561  11.060   9.908   5.842
   12LYS    HZ1 7562  11.074   9.876   5.937
   12LYS    HZ2 7563  11.126   9.853   5.790
   12LYS    HZ3 7564  11.083  10.004   5.822
   12LYS      C 7565  10.569  10.067   5.420
   12LYS      O 7566  10.562   9.981   5.335
   13NHE      N 7567  10.610  10.188   5.396
   13NHE    HN1 7568  10.610  10.251   5.477
   13NHE    HN2 7569  10.631  10.213   5.302
    1ILE      N 7570   3.490   0.915   6.334
    1ILE     H1 7571   3.570   0.921   6.396
    1ILE     H2 7572   3.509   0.953   6.243
    1ILE     H3 7573   3.462   0.821   6.314
    1ILE     CA 7574   3.379   0.993   6.396
    1ILE     HA 7575   3.298   0.999   6.323
    1ILE     CB 7576   3.314   0.929   6.518
    1ILE     HB 7577   3.237   1.001   6.546
    1ILE    CG2 7578   3.244   0.804   6.464
    1ILE   HG21 7579   3.302   0.715   6.440
    1ILE   HG22 7580   3.177   0.761   6.538
    1ILE   HG23 7581   3.173   0.832   6.386
    1ILE    CG1 7582   3.415   0.895   6.627
    1ILE   HG12 7583   3.487   0.976   6.638
    1ILE   HG13 7584   3.463   0.798   6.612
    1ILE    CD1 7585   3.334   0.901   6.756
    1ILE   HD11 7586   3.396   0.892   6.846
    1ILE   HD12 7587   3.283   0.998   6.757
    1ILE   HD13 7588   3.262   0.821   6.764
    1ILE      C 7589   3.421   1.137   6.415
    1ILE      O 7590   3.542   1.158   6.445
    2LEU      N 7591   3.324   1.229   6.406
    2LEU      H 7592   3.231   1.192   6.396
    2LEU     CA 7593   3.347   1.372   6.428
    2LEU     HA 7594   3.441   1.397   6.377
    2LEU     CB 7595   3.230   1.455   6.367
    2LEU    HB2 7596   3.137   1.427   6.416
    2LEU    HB3 7597   3.245   1.563   6.377
    2LEU     CG 7598   3.196   1.426   6.222
    2LEU     HG 7599   3.170   1.326   6.192
    2LEU    CD1 7600   3.086   1.520   6.175
    2LEU   HD11 7601   3.099   1.625   6.202
    2LEU   HD12 7602   3.081   1.505   6.067
    2LEU   HD13 7603   2.985   1.490   6.203
    2LEU    CD2 7604   3.326   1.455   6.144
    2LEU   HD21 7605   3.393   1.370   6.162
    2LEU   HD22 7606   3.297   1.462   6.039
    2LEU   HD23 7607   3.369   1.551   6.170
    2LEU      C 7608   3.365   1.400   6.580
    2LEU      O 7609   3.305   1.333   6.662
    3ARG      N 7610   3.449   1.496   6.623
    3ARG      H 7611   3.507   1.541   6.553
    3ARG     CA 7612   3.466   1.537   6.763
    3ARG     HA 7613   3.440   1.446   6.817
    3ARG     CB 7614   3.615   1.561   6.782
    3ARG    HB2 7615   3.643   1.648   6.725
    3ARG    HB3 7616   3.635   1.577   6.888
    3ARG     CG 7617   3.712   1.445   6.749
    3ARG    HG2 7618   3.715   1.430   6.642
    3ARG    HG3 7619   3.814   1.480   6.768
    3ARG     CD 7620   3.688   1.311   6.822
    3ARG    HD2 7621   3.709   1.320   6.929
    3ARG    HD3 7622   3.586   1.274   6.828
    3ARG     NE 7623   3.781   1.198   6.778
    3ARG     HE 7624   3.864   1.224   6.728
    3ARG     CZ 7625   3.764   1.070   6.808
    3ARG    NH1 7626   3.656   1.026   6.864
    3ARG   HH11 7627   3.602   1.092   6.917
    3ARG   HH12 7628   3.655   0.925   6.875
    3ARG    NH2 7629   3.862   0.990   6.780
    3ARG   HH21 7630   3.941   1.022   6.725
    3ARG   HH22 7631   3.834   0.894   6.772
    3ARG      C 7632   3.362   1.636   6.819
    3ARG      O 7633   3.370   1.671   6.937
    4TRP      N 7634   3.258   1.665   6.739
    4TRP      H 7635   3.248   1.606   6.658
    4TRP     CA 7636   3.135   1.733   6.791
    4TRP     HA 7637   3.149   1.747   6.899
    4TRP     CB 7638   3.130   1.872   6.723
    4TRP    HB2 7639   3.031   1.915   6.730
    4TRP    HB3 7640   3.192   1.941   6.781
    4TRP     CG 7641   3.164   1.871   6.565
    4TRP    CD1 7642   3.072   1.822   6.475
    4TRP    HD1 7643   2.984   1.762   6.497
    4TRP    NE1 7644   3.117   1.848   6.349
    4TRP    HE1 7645   3.067   1.842   6.261
    4TRP    CE2 7646   3.245   1.907   6.348
    4TRP    CZ2 7647   3.341   1.944   6.255
    4TRP    HZ2 7648   3.324   1.929   6.150
    4TRP    CH2 7649   3.464   2.003   6.288
    4TRP    HH2 7650   3.534   2.038   6.214
    4TRP    CZ3 7651   3.496   2.017   6.426
    4TRP    HZ3 7652   3.592   2.051   6.465
    4TRP    CE3 7653   3.402   1.975   6.520
    4TRP    HE3 7654   3.414   1.994   6.625
    4TRP    CD2 7655   3.274   1.923   6.486
    4TRP      C 7656   3.006   1.641   6.777
    4TRP      O 7657   3.010   1.549   6.698
    5PRO      N 7658   2.897   1.666   6.856
    5PRO     CD 7659   2.881   1.763   6.959
    5PRO    HD2 7660   2.915   1.863   6.931
    5PRO    HD3 7661   2.938   1.734   7.047
    5PRO     CG 7662   2.733   1.765   6.997
    5PRO    HG2 7663   2.681   1.830   6.927
    5PRO    HG3 7664   2.713   1.790   7.101
    5PRO     CB 7665   2.681   1.618   6.953
    5PRO    HB2 7666   2.576   1.618   6.925
    5PRO    HB3 7667   2.708   1.550   7.034
    5PRO     CA 7668   2.775   1.584   6.831
    5PRO     HA 7669   2.808   1.481   6.841
    5PRO      C 7670   2.716   1.610   6.693
    5PRO      O 7671   2.688   1.723   6.653
    6TRP      N 7672   2.694   1.497   6.628
    6TRP      H 7673   2.714   1.410   6.675
    6TRP     CA 7674   2.646   1.487   6.487
    6TRP     HA 7675   2.668   1.583   6.442
    6TRP     CB 7676   2.730   1.396   6.397
    6TRP    HB2 7677   2.832   1.436   6.389
    6TRP    HB3 7678   2.732   1.296   6.438
    6TRP     CG 7679   2.665   1.387   6.262
    6TRP    CD1 7680   2.613   1.271   6.211
    6TRP    HD1 7681   2.604   1.177   6.265
    6TRP    NE1 7682   2.558   1.292   6.095
    6TRP    HE1 7683   2.526   1.221   6.030
    6TRP    CE2 7684   2.582   1.422   6.056
    6TRP    CZ2 7685   2.544   1.495   5.936
    6TRP    HZ2 7686   2.501   1.455   5.845
    6TRP    CH2 7687   2.574   1.631   5.924
    6TRP    HH2 7688   2.549   1.688   5.836
    6TRP    CZ3 7689   2.643   1.693   6.026
    6TRP    HZ3 7690   2.683   1.793   6.016
    6TRP    CE3 7691   2.667   1.627   6.144
    6TRP    HE3 7692   2.737   1.677   6.209
    6TRP    CD2 7693   2.642   1.489   6.165
    6TRP      C 7694   2.497   1.448   6.474
    6TRP      O 7695   2.455   1.344   6.521
    7TRP      N 7696   2.413   1.535   6.413
    7TRP      H 7697   2.451   1.627   6.394
    7TRP     CA 7698   2.285   1.487   6.365
    7TRP     HA 7699   2.269   1.381   6.382
    7TRP     CB 7700   2.181   1.553   6.456
    7TRP    HB2 7701   2.202   1.542   6.563
    7TRP    HB3 7702   2.178   1.660   6.436
    7TRP     CG 7703   2.046   1.505   6.436
    7TRP    CD1 7704   1.937   1.578   6.426
    7TRP    HD1 7705   1.939   1.686   6.427
    7TRP    NE1 7706   1.829   1.495   6.409
    7TRP    HE1 7707   1.735   1.526   6.393
    7TRP    CE2 7708   1.859   1.358   6.425
    7TRP    CZ2 7709   1.778   1.241   6.428
    7TRP    HZ2 7710   1.671   1.249   6.414
    7TRP    CH2 7711   1.843   1.120   6.463
    7TRP    HH2 7712   1.780   1.035   6.487
    7TRP    CZ3 7713   1.979   1.125   6.506
    7TRP    HZ3 7714   2.022   1.038   6.553
    7TRP    CE3 7715   2.056   1.241   6.490
    7TRP    HE3 7716   2.158   1.242   6.527
    7TRP    CD2 7717   1.999   1.364   6.452
    7TRP      C 7718   2.273   1.519   6.218
    7TRP      O 7719   2.295   1.630   6.178
    8PRO      N 7720   2.220   1.425   6.136
    8PRO     CD 7721   2.216   1.278   6.155
    8PRO    HD2 7722   2.118   1.254   6.194
    8PRO    HD3 7723   2.299   1.250   6.220
    8PRO     CG 7724   2.217   1.219   6.013
    8PRO    HG2 7725   2.177   1.118   6.030
    8PRO    HG3 7726   2.318   1.218   5.972
    8PRO     CB 7727   2.135   1.320   5.934
    8PRO    HB2 7728   2.029   1.307   5.953
    8PRO    HB3 7729   2.166   1.309   5.831
    8PRO     CA 7730   2.184   1.449   5.997
    8PRO     HA 7731   2.275   1.485   5.947
    8PRO      C 7732   2.075   1.559   5.971
    8PRO      O 7733   2.037   1.585   5.856
    9TRP      N 7734   2.037   1.638   6.071
    9TRP      H 7735   2.076   1.621   6.162
    9TRP     CA 7736   1.949   1.756   6.064
    9TRP     HA 7737   1.940   1.804   5.967
    9TRP     CB 7738   1.807   1.702   6.090
    9TRP    HB2 7739   1.776   1.626   6.018
    9TRP    HB3 7740   1.805   1.658   6.190
    9TRP     CG 7741   1.694   1.800   6.087
    9TRP    CD1 7742   1.614   1.836   6.191
    9TRP    HD1 7743   1.614   1.788   6.288
    9TRP    NE1 7744   1.512   1.921   6.146
    9TRP    HE1 7745   1.427   1.941   6.196
    9TRP    CE2 7746   1.537   1.960   6.014
    9TRP    CZ2 7747   1.477   2.053   5.929
    9TRP    HZ2 7748   1.391   2.110   5.959
    9TRP    CH2 7749   1.534   2.074   5.806
    9TRP    HH2 7750   1.484   2.145   5.741
    9TRP    CZ3 7751   1.633   1.993   5.760
    9TRP    HZ3 7752   1.679   2.021   5.667
    9TRP    CE3 7753   1.694   1.897   5.839
    9TRP    HE3 7754   1.776   1.842   5.798
    9TRP    CD2 7755   1.647   1.880   5.973
    9TRP      C 7756   1.996   1.865   6.159
    9TRP      O 7757   2.055   1.834   6.255
   10ARG      N 7758   1.944   1.986   6.137
   10ARG      H 7759   1.858   1.983   6.085
   10ARG     CA 7760   1.959   2.103   6.225
   10ARG     HA 7761   2.065   2.115   6.249
   10ARG     CB 7762   1.910   2.238   6.166
   10ARG    HB2 7763   1.802   2.254   6.182
   10ARG    HB3 7764   1.967   2.317   6.216
   10ARG     CG 7765   1.926   2.250   6.016
   10ARG    HG2 7766   2.027   2.229   5.980
   10ARG    HG3 7767   1.860   2.178   5.970
   10ARG     CD 7768   1.888   2.386   5.961
   10ARG    HD2 7769   1.794   2.411   6.008
   10ARG    HD3 7770   1.949   2.464   6.007
   10ARG     NE 7771   1.891   2.379   5.808
   10ARG     HE 7772   1.973   2.345   5.762
   10ARG     CZ 7773   1.794   2.400   5.730
   10ARG    NH1 7774   1.671   2.427   5.771
   10ARG   HH11 7775   1.650   2.432   5.869
   10ARG   HH12 7776   1.606   2.457   5.700
   10ARG    NH2 7777   1.808   2.398   5.601
   10ARG   HH21 7778   1.865   2.320   5.572
   10ARG   HH22 7779   1.720   2.414   5.554
   10ARG      C 7780   1.903   2.080   6.367
   10ARG      O 7781   1.815   2.000   6.390
   11ARG      N 7782   1.960   2.151   6.465
   11ARG      H 7783   2.017   2.227   6.430
   11ARG     CA 7784   1.931   2.149   6.610
   11ARG     HA 7785   1.825   2.141   6.635
   11ARG     CB 7786   2.006   2.034   6.688
   11ARG    HB2 7787   2.108   2.015   6.655
   11ARG    HB3 7788   2.014   2.044   6.796
   11ARG     CG 7789   1.940   1.898   6.663
   11ARG    HG2 7790   1.842   1.896   6.710
   11ARG    HG3 7791   1.928   1.873   6.558
   11ARG     CD 7792   2.028   1.790   6.724
   11ARG    HD2 7793   1.989   1.695   6.691
   11ARG    HD3 7794   2.128   1.791   6.680
   11ARG     NE 7795   2.034   1.802   6.874
   11ARG     HE 7796   2.106   1.869   6.898
   11ARG     CZ 7797   1.930   1.781   6.955
   11ARG    NH1 7798   1.829   1.710   6.912
   11ARG   HH11 7799   1.839   1.675   6.818
   11ARG   HH12 7800   1.757   1.687   6.978
   11ARG    NH2 7801   1.929   1.822   7.074
   11ARG   HH21 7802   2.008   1.868   7.118
   11ARG   HH22 7803   1.838   1.822   7.118
   11ARG      C 7804   1.986   2.276   6.669
   11ARG      O 7805   2.068   2.346   6.614
   12LYS      N 7806   1.929   2.309   6.786
   12LYS      H 7807   1.878   2.234   6.830
   12LYS     CA 7808   1.965   2.423   6.871
   12LYS     HA 7809   2.066   2.455   6.846
   12LYS     CB 7810   1.868   2.542   6.846
   12LYS    HB2 7811   1.773   2.503   6.882
   12LYS    HB3 7812   1.899   2.623   6.913
   12LYS     CG 7813   1.854   2.597   6.702
   12LYS    HG2 7814   1.955   2.612   6.664
   12LYS    HG3 7815   1.821   2.521   6.632
   12LYS     CD 7816   1.763   2.721   6.685
   12LYS    HD2 7817   1.806   2.783   6.765
   12LYS    HD3 7818   1.775   2.767   6.587
   12LYS     CE 7819   1.620   2.701   6.731
   12LYS    HE2 7820   1.564   2.629   6.672
   12LYS    HE3 7821   1.614   2.657   6.831
   12LYS     NZ 7822   1.562   2.836   6.746
   12LYS    HZ1 7823   1.536   2.872   6.654
   12LYS    HZ2 7824   1.473   2.827   6.793
   12LYS    HZ3 7825   1.617   2.896   6.804
   12LYS      C 7826   1.971   2.391   7.025
   12LYS      O 7827   1.904   2.298   7.068
   13NHE      N 7828   2.033   2.475   7.102
   13NHE    HN1 7829   2.086   2.547   7.053
   13NHE    HN2 7830   2.031   2.459   7.200
    1ILE      N 7831   4.825   4.907   4.411
    1ILE     H1 7832   4.738   4.917   4.462
    1ILE     H2 7833   4.809   4.892   4.313
    1ILE     H3 7834   4.882   4.991   4.411
    1ILE     CA 7835   4.899   4.791   4.466
    1ILE     HA 7836   4.984   4.772   4.401
    1ILE     CB 7837   4.961   4.812   4.604
    1ILE     HB 7838   5.010   4.716   4.625
    1ILE    CG2 7839   5.072   4.916   4.581
    1ILE   HG21 7840   5.045   5.021   4.570
    1ILE   HG22 7841   5.136   4.925   4.669
    1ILE   HG23 7842   5.142   4.880   4.506
    1ILE    CG1 7843   4.859   4.858   4.707
    1ILE   HG12 7844   4.767   4.803   4.697
    1ILE   HG13 7845   4.844   4.967   4.707
    1ILE    CD1 7846   4.916   4.808   4.840
    1ILE   HD11 7847   4.846   4.822   4.924
    1ILE   HD12 7848   4.937   4.701   4.828
    1ILE   HD13 7849   5.006   4.860   4.870
    1ILE      C 7850   4.815   4.665   4.454
    1ILE      O 7851   4.691   4.678   4.468
    2LEU      N 7852   4.883   4.550   4.437
    2LEU      H 7853   4.982   4.559   4.442
    2LEU     CA 7854   4.816   4.420   4.429
    2LEU     HA 7855   4.727   4.433   4.366
    2LEU     CB 7856   4.912   4.315   4.365
    2LEU    HB2 7857   5.001   4.306   4.427
    2LEU    HB3 7858   4.866   4.217   4.352
    2LEU     CG 7859   4.973   4.354   4.231
    2LEU     HG 7860   5.032   4.445   4.223
    2LEU    CD1 7861   5.058   4.239   4.178
    2LEU   HD11 7862   5.012   4.140   4.183
    2LEU   HD12 7863   5.082   4.269   4.075
    2LEU   HD13 7864   5.158   4.232   4.220
    2LEU    CD2 7865   4.854   4.379   4.138
    2LEU   HD21 7866   4.812   4.477   4.165
    2LEU   HD22 7867   4.894   4.380   4.036
    2LEU   HD23 7868   4.782   4.298   4.141
    2LEU      C 7869   4.770   4.376   4.571
    2LEU      O 7870   4.833   4.408   4.669
    3ARG      N 7871   4.656   4.305   4.587
    3ARG      H 7872   4.599   4.291   4.505
    3ARG     CA 7873   4.608   4.251   4.715
    3ARG     HA 7874   4.651   4.320   4.786
    3ARG     CB 7875   4.457   4.271   4.715
    3ARG    HB2 7876   4.414   4.206   4.639
    3ARG    HB3 7877   4.418   4.246   4.814
    3ARG     CG 7878   4.404   4.414   4.696
    3ARG    HG2 7879   4.421   4.446   4.593
    3ARG    HG3 7880   4.294   4.410   4.698
    3ARG     CD 7881   4.454   4.522   4.795
    3ARG    HD2 7882   4.415   4.504   4.896
    3ARG    HD3 7883   4.560   4.524   4.817
    3ARG     NE 7884   4.404   4.663   4.764
    3ARG     HE 7885   4.325   4.671   4.703
    3ARG     CZ 7886   4.453   4.773   4.819
    3ARG    NH1 7887   4.559   4.773   4.893
    3ARG   HH11 7888   4.584   4.687   4.936
    3ARG   HH12 7889   4.588   4.866   4.923
    3ARG    NH2 7890   4.387   4.883   4.798
    3ARG   HH21 7891   4.310   4.886   4.731
    3ARG   HH22 7892   4.442   4.966   4.811
    3ARG      C 7893   4.670   4.117   4.760
    3ARG      O 7894   4.635   4.068   4.868
    4TRP      N 7895   4.772   4.070   4.686
    4TRP      H 7896   4.810   4.134   4.618
    4TRP     CA 7897   4.861   3.960   4.735
    4TRP     HA 7898   4.829   3.934   4.837
    4TRP     CB 7899   4.836   3.839   4.643
    4TRP    HB2 7900   4.916   3.767   4.651
    4TRP    HB3 7901   4.749   3.784   4.680
    4TRP     CG 7902   4.827   3.874   4.485
    4TRP    CD1 7903   4.942   3.906   4.416
    4TRP    HD1 7904   5.038   3.932   4.457
    4TRP    NE1 7905   4.909   3.914   4.283
    4TRP    HE1 7906   4.971   3.918   4.203
    4TRP    CE2 7907   4.772   3.898   4.259
    4TRP    CZ2 7908   4.683   3.907   4.152
    4TRP    HZ2 7909   4.719   3.932   4.054
    4TRP    CH2 7910   4.546   3.885   4.162
    4TRP    HH2 7911   4.480   3.884   4.076
    4TRP    CZ3 7912   4.490   3.860   4.291
    4TRP    HZ3 7913   4.385   3.852   4.314
    4TRP    CE3 7914   4.579   3.857   4.400
    4TRP    HE3 7915   4.547   3.826   4.498
    4TRP    CD2 7916   4.719   3.871   4.389
    4TRP      C 7917   5.011   4.009   4.751
    4TRP      O 7918   5.046   4.109   4.691
    5PRO      N 7919   5.097   3.939   4.834
    5PRO     CD 7920   5.069   3.829   4.918
    5PRO    HD2 7921   5.013   3.749   4.867
    5PRO    HD3 7922   5.010   3.859   5.004
    5PRO     CG 7923   5.204   3.775   4.967
    5PRO    HG2 7924   5.244   3.709   4.891
    5PRO    HG3 7925   5.200   3.729   5.066
    5PRO     CB 7926   5.300   3.904   4.957
    5PRO    HB2 7927   5.404   3.876   4.940
    5PRO    HB3 7928   5.283   3.964   5.046
    5PRO     CA 7929   5.239   3.983   4.836
    5PRO     HA 7930   5.236   4.088   4.862
    5PRO      C 7931   5.308   3.962   4.701
    5PRO      O 7932   5.308   3.853   4.643
    6TRP      N 7933   5.370   4.071   4.662
    6TRP      H 7934   5.369   4.152   4.722
    6TRP     CA 7935   5.439   4.088   4.529
    6TRP     HA 7936   5.397   4.011   4.465
    6TRP     CB 7937   5.398   4.213   4.451
    6TRP    HB2 7938   5.291   4.208   4.426
    6TRP    HB3 7939   5.420   4.301   4.510
    6TRP     CG 7940   5.482   4.222   4.327
    6TRP    CD1 7941   5.572   4.323   4.304
    6TRP    HD1 7942   5.600   4.400   4.376
    6TRP    NE1 7943   5.635   4.304   4.191
    6TRP    HE1 7944   5.695   4.370   4.145
    6TRP    CE2 7945   5.580   4.195   4.126
    6TRP    CZ2 7946   5.613   4.134   3.999
    6TRP    HZ2 7947   5.679   4.172   3.921
    6TRP    CH2 7948   5.547   4.016   3.959
    6TRP    HH2 7949   5.568   3.968   3.864
    6TRP    CZ3 7950   5.450   3.964   4.041
    6TRP    HZ3 7951   5.385   3.884   4.008
    6TRP    CE3 7952   5.428   4.015   4.166
    6TRP    HE3 7953   5.338   3.979   4.214
    6TRP    CD2 7954   5.489   4.134   4.215
    6TRP      C 7955   5.593   4.080   4.539
    6TRP      O 7956   5.656   4.158   4.607
    7TRP      N 7957   5.656   3.983   4.470
    7TRP      H 7958   5.597   3.911   4.430
    7TRP     CA 7959   5.798   3.995   4.444
    7TRP     HA 7960   5.842   4.088   4.482
    7TRP     CB 7961   5.865   3.888   4.530
    7TRP    HB2 7962   5.832   3.889   4.634
    7TRP    HB3 7963   5.840   3.789   4.490
    7TRP     CG 7964   6.009   3.894   4.532
    7TRP    CD1 7965   6.093   3.794   4.519
    7TRP    HD1 7966   6.060   3.692   4.498
    7TRP    NE1 7967   6.221   3.841   4.527
    7TRP    HE1 7968   6.304   3.786   4.515
    7TRP    CE2 7969   6.230   3.976   4.566
    7TRP    CZ2 7970   6.340   4.061   4.598
    7TRP    HZ2 7971   6.441   4.023   4.594
    7TRP    CH2 7972   6.308   4.190   4.650
    7TRP    HH2 7973   6.388   4.247   4.695
    7TRP    CZ3 7974   6.172   4.220   4.678
    7TRP    HZ3 7975   6.149   4.308   4.737
    7TRP    CE3 7976   6.067   4.137   4.634
    7TRP    HE3 7977   5.965   4.162   4.660
    7TRP    CD2 7978   6.092   4.010   4.578
    7TRP      C 7979   5.822   3.984   4.295
    7TRP      O 7980   5.775   3.893   4.233
    8PRO      N 7981   5.911   4.069   4.238
    8PRO     CD 7982   5.954   4.203   4.284
    8PRO    HD2 7983   6.048   4.190   4.336
    8PRO    HD3 7984   5.874   4.245   4.345
    8PRO     CG 7985   5.990   4.280   4.157
    8PRO    HG2 7986   6.054   4.360   4.196
    8PRO    HG3 7987   5.901   4.319   4.108
    8PRO     CB 7988   6.051   4.172   4.068
    8PRO    HB2 7989   6.152   4.150   4.098
    8PRO    HB3 7990   6.040   4.208   3.967
    8PRO     CA 7991   5.958   4.056   4.101
    8PRO     HA 7992   5.869   4.058   4.036
    8PRO      C 7993   6.034   3.924   4.064
    8PRO      O 7994   6.079   3.905   3.951
    9TRP      N 7995   6.033   3.822   4.150
    9TRP      H 7996   5.988   3.836   4.239
    9TRP     CA 7997   6.083   3.686   4.130
    9TRP     HA 7998   6.092   3.653   4.027
    9TRP     CB 7999   6.230   3.689   4.178
    9TRP    HB2 8000   6.291   3.761   4.125
    9TRP    HB3 8001   6.230   3.714   4.285
    9TRP     CG 8002   6.309   3.562   4.168
    9TRP    CD1 8003   6.359   3.488   4.270
    9TRP    HD1 8004   6.359   3.518   4.374
    9TRP    NE1 8005   6.438   3.384   4.219
    9TRP    HE1 8006   6.506   3.332   4.272
    9TRP    CE2 8007   6.423   3.376   4.080
    9TRP    CZ2 8008   6.465   3.282   3.984
    9TRP    HZ2 8009   6.526   3.198   4.011
    9TRP    CH2 8010   6.424   3.299   3.855
    9TRP    HH2 8011   6.459   3.227   3.783
    9TRP    CZ3 8012   6.359   3.413   3.817
    9TRP    HZ3 8013   6.321   3.415   3.716
    9TRP    CE3 8014   6.317   3.509   3.907
    9TRP    HE3 8015   6.261   3.593   3.869
    9TRP    CD2 8016   6.347   3.490   4.045
    9TRP      C 8017   5.994   3.583   4.198
    9TRP      O 8018   5.933   3.616   4.292
   10ARG      N 8019   6.012   3.457   4.158
   10ARG      H 8020   6.102   3.441   4.116
   10ARG     CA 8021   5.951   3.338   4.221
   10ARG     HA 8022   5.844   3.356   4.232
   10ARG     CB 8023   5.968   3.205   4.142
   10ARG    HB2 8024   6.063   3.155   4.164
   10ARG    HB3 8025   5.884   3.141   4.170
   10ARG     CG 8026   5.971   3.222   3.991
   10ARG    HG2 8027   5.887   3.278   3.950
   10ARG    HG3 8028   6.061   3.276   3.966
   10ARG     CD 8029   5.976   3.091   3.915
   10ARG    HD2 8030   6.051   3.031   3.966
   10ARG    HD3 8031   5.889   3.030   3.939
   10ARG     NE 8032   5.997   3.122   3.767
   10ARG     HE 8033   5.936   3.186   3.721
   10ARG     CZ 8034   6.095   3.084   3.695
   10ARG    NH1 8035   6.198   3.015   3.741
   10ARG   HH11 8036   6.201   2.989   3.839
   10ARG   HH12 8037   6.260   2.977   3.672
   10ARG    NH2 8038   6.100   3.110   3.568
   10ARG   HH21 8039   6.073   3.205   3.549
   10ARG   HH22 8040   6.186   3.075   3.528
   10ARG      C 8041   5.991   3.321   4.368
   10ARG      O 8042   6.094   3.366   4.415
   11ARG      N 8043   5.902   3.257   4.445
   11ARG      H 8044   5.831   3.208   4.392
   11ARG     CA 8045   5.909   3.228   4.590
   11ARG     HA 8046   6.008   3.199   4.626
   11ARG     CB 8047   5.860   3.346   4.681
   11ARG    HB2 8048   5.773   3.401   4.644
   11ARG    HB3 8049   5.833   3.323   4.784
   11ARG     CG 8050   5.964   3.458   4.689
   11ARG    HG2 8051   6.051   3.423   4.744
   11ARG    HG3 8052   5.998   3.494   4.592
   11ARG     CD 8053   5.903   3.577   4.761
   11ARG    HD2 8054   5.973   3.660   4.750
   11ARG    HD3 8055   5.815   3.614   4.708
   11ARG     NE 8056   5.873   3.545   4.905
   11ARG     HE 8057   5.782   3.500   4.909
   11ARG     CZ 8058   5.965   3.521   4.998
   11ARG    NH1 8059   6.087   3.562   4.978
   11ARG   HH11 8060   6.102   3.613   4.892
   11ARG   HH12 8061   6.153   3.552   5.054
   11ARG    NH2 8062   5.937   3.463   5.107
   11ARG   HH21 8063   5.843   3.437   5.133
   11ARG   HH22 8064   6.017   3.428   5.158
   11ARG      C 8065   5.812   3.116   4.619
   11ARG      O 8066   5.722   3.084   4.545
   12LYS      N 8067   5.840   3.050   4.732
   12LYS      H 8068   5.903   3.098   4.795
   12LYS     CA 8069   5.760   2.940   4.791
   12LYS     HA 8070   5.659   2.946   4.751
   12LYS     CB 8071   5.822   2.802   4.752
   12LYS    HB2 8072   5.918   2.805   4.804
   12LYS    HB3 8073   5.760   2.726   4.799
   12LYS     CG 8074   5.841   2.769   4.603
   12LYS    HG2 8075   5.746   2.791   4.554
   12LYS    HG3 8076   5.903   2.841   4.552
   12LYS     CD 8077   5.893   2.627   4.571
   12LYS    HD2 8078   5.824   2.570   4.633
   12LYS    HD3 8079   5.884   2.603   4.465
   12LYS     CE 8080   6.029   2.595   4.633
   12LYS    HE2 8081   6.111   2.654   4.594
   12LYS    HE3 8082   6.032   2.619   4.739
   12LYS     NZ 8083   6.043   2.448   4.627
   12LYS    HZ1 8084   6.070   2.420   4.533
   12LYS    HZ2 8085   6.123   2.422   4.683
   12LYS    HZ3 8086   5.964   2.400   4.668
   12LYS      C 8087   5.742   2.949   4.947
   12LYS      O 8088   5.825   3.009   5.012
   13NHE      N 8089   5.648   2.877   5.000
   13NHE    HN1 8090   5.584   2.833   4.934
   13NHE    HN2 8091   5.640   2.876   5.100
    1ILE      N 8092   8.247   6.412   7.303
    1ILE     H1 8093   8.215   6.318   7.285
    1ILE     H2 8094   8.235   6.472   7.223
    1ILE     H3 8095   8.195   6.459   7.375
    1ILE     CA 8096   8.392   6.406   7.336
    1ILE     HA 8097   8.429   6.509   7.340
    1ILE     CB 8098   8.426   6.349   7.473
    1ILE     HB 8099   8.535   6.354   7.477
    1ILE    CG2 8100   8.371   6.451   7.573
    1ILE   HG21 8101   8.264   6.455   7.593
    1ILE   HG22 8102   8.406   6.431   7.674
    1ILE   HG23 8103   8.415   6.550   7.555
    1ILE    CG1 8104   8.366   6.211   7.494
    1ILE   HG12 8105   8.378   6.150   7.405
    1ILE   HG13 8106   8.263   6.213   7.531
    1ILE    CD1 8107   8.461   6.144   7.594
    1ILE   HD11 8108   8.439   6.038   7.610
    1ILE   HD12 8109   8.562   6.155   7.554
    1ILE   HD13 8110   8.456   6.188   7.693
    1ILE      C 8111   8.470   6.345   7.221
    1ILE      O 8112   8.413   6.253   7.156
    2LEU      N 8113   8.595   6.389   7.205
    2LEU      H 8114   8.628   6.452   7.275
    2LEU     CA 8115   8.685   6.336   7.101
    2LEU     HA 8116   8.625   6.324   7.010
    2LEU     CB 8117   8.803   6.434   7.076
    2LEU    HB2 8118   8.859   6.447   7.169
    2LEU    HB3 8119   8.870   6.401   6.998
    2LEU     CG 8120   8.764   6.578   7.047
    2LEU     HG 8121   8.703   6.634   7.117
    2LEU    CD1 8122   8.889   6.660   7.017
    2LEU   HD11 8123   8.961   6.614   6.949
    2LEU   HD12 8124   8.851   6.756   6.979
    2LEU   HD13 8125   8.943   6.695   7.105
    2LEU    CD2 8126   8.676   6.570   6.921
    2LEU   HD21 8127   8.577   6.534   6.953
    2LEU   HD22 8128   8.670   6.672   6.881
    2LEU   HD23 8129   8.721   6.510   6.842
    2LEU      C 8130   8.736   6.194   7.144
    2LEU      O 8131   8.753   6.168   7.261
    3ARG      N 8132   8.758   6.099   7.052
    3ARG      H 8133   8.731   6.120   6.957
    3ARG     CA 8134   8.815   5.966   7.080
    3ARG     HA 8135   8.785   5.950   7.183
    3ARG     CB 8136   8.738   5.868   6.993
    3ARG    HB2 8137   8.764   5.887   6.889
    3ARG    HB3 8138   8.766   5.767   7.021
    3ARG     CG 8139   8.585   5.864   7.008
    3ARG    HG2 8140   8.541   5.954   6.966
    3ARG    HG3 8141   8.547   5.789   6.937
    3ARG     CD 8142   8.528   5.837   7.149
    3ARG    HD2 8143   8.551   5.735   7.182
    3ARG    HD3 8144   8.572   5.892   7.232
    3ARG     NE 8145   8.376   5.843   7.158
    3ARG     HE 8146   8.325   5.837   7.072
    3ARG     CZ 8147   8.307   5.848   7.271
    3ARG    NH1 8148   8.364   5.864   7.386
    3ARG   HH11 8149   8.461   5.838   7.393
    3ARG   HH12 8150   8.298   5.872   7.463
    3ARG    NH2 8151   8.179   5.832   7.262
    3ARG   HH21 8152   8.133   5.831   7.172
    3ARG   HH22 8153   8.129   5.870   7.341
    3ARG      C 8154   8.969   5.959   7.092
    3ARG      O 8155   9.021   5.850   7.119
    4TRP      N 8156   9.035   6.075   7.090
    4TRP      H 8157   8.978   6.158   7.098
    4TRP     CA 8158   9.178   6.085   7.131
    4TRP     HA 8159   9.210   5.986   7.165
    4TRP     CB 8160   9.258   6.122   7.004
    4TRP    HB2 8161   9.356   6.162   7.030
    4TRP    HB3 8162   9.281   6.030   6.950
    4TRP     CG 8163   9.191   6.237   6.913
    4TRP    CD1 8164   9.192   6.368   6.954
    4TRP    HD1 8165   9.215   6.405   7.053
    4TRP    NE1 8166   9.145   6.445   6.852
    4TRP    HE1 8167   9.148   6.546   6.841
    4TRP    CE2 8168   9.100   6.369   6.742
    4TRP    CZ2 8169   9.036   6.391   6.620
    4TRP    HZ2 8170   9.006   6.490   6.591
    4TRP    CH2 8171   9.004   6.289   6.530
    4TRP    HH2 8172   8.961   6.308   6.432
    4TRP    CZ3 8173   9.032   6.154   6.567
    4TRP    HZ3 8174   9.002   6.066   6.511
    4TRP    CE3 8175   9.092   6.133   6.692
    4TRP    HE3 8176   9.127   6.035   6.721
    4TRP    CD2 8177   9.131   6.236   6.780
    4TRP      C 8178   9.197   6.179   7.258
    4TRP      O 8179   9.108   6.259   7.283
    5PRO      N 8180   9.309   6.167   7.336
    5PRO     CD 8181   9.415   6.074   7.325
    5PRO    HD2 8182   9.454   6.064   7.223
    5PRO    HD3 8183   9.383   5.975   7.356
    5PRO     CG 8184   9.526   6.120   7.420
    5PRO    HG2 8185   9.586   6.195   7.368
    5PRO    HG3 8186   9.587   6.039   7.461
    5PRO     CB 8187   9.447   6.207   7.530
    5PRO    HB2 8188   9.508   6.286   7.573
    5PRO    HB3 8189   9.404   6.137   7.601
    5PRO     CA 8190   9.326   6.266   7.446
    5PRO     HA 8191   9.236   6.256   7.506
    5PRO      C 8192   9.344   6.408   7.395
    5PRO      O 8193   9.429   6.438   7.311
    6TRP      N 8194   9.262   6.491   7.455
    6TRP      H 8195   9.202   6.456   7.528
    6TRP     CA 8196   9.246   6.637   7.422
    6TRP     HA 8197   9.286   6.647   7.321
    6TRP     CB 8198   9.102   6.682   7.398
    6TRP    HB2 8199   9.060   6.629   7.312
    6TRP    HB3 8200   9.043   6.663   7.487
    6TRP     CG 8201   9.101   6.830   7.376
    6TRP    CD1 8202   9.041   6.919   7.461
    6TRP    HD1 8203   8.997   6.893   7.557
    6TRP    NE1 8204   9.058   7.042   7.421
    6TRP    HE1 8205   9.013   7.124   7.457
    6TRP    CE2 8206   9.122   7.041   7.298
    6TRP    CZ2 8207   9.163   7.149   7.210
    6TRP    HZ2 8208   9.138   7.254   7.219
    6TRP    CH2 8209   9.234   7.121   7.093
    6TRP    HH2 8210   9.266   7.198   7.025
    6TRP    CZ3 8211   9.260   6.989   7.061
    6TRP    HZ3 8212   9.300   6.961   6.965
    6TRP    CE3 8213   9.232   6.889   7.150
    6TRP    HE3 8214   9.239   6.790   7.108
    6TRP    CD2 8215   9.159   6.907   7.270
    6TRP      C 8216   9.315   6.731   7.522
    6TRP      O 8217   9.284   6.732   7.639
    7TRP      N 8218   9.413   6.813   7.477
    7TRP      H 8219   9.446   6.793   7.383
    7TRP     CA 8220   9.452   6.927   7.556
    7TRP     HA 8221   9.393   6.939   7.647
    7TRP     CB 8222   9.592   6.895   7.608
    7TRP    HB2 8223   9.600   6.797   7.655
    7TRP    HB3 8224   9.662   6.897   7.525
    7TRP     CG 8225   9.642   6.992   7.703
    7TRP    CD1 8226   9.762   7.045   7.706
    7TRP    HD1 8227   9.837   7.026   7.629
    7TRP    NE1 8228   9.772   7.130   7.813
    7TRP    HE1 8229   9.851   7.187   7.835
    7TRP    CE2 8230   9.662   7.123   7.901
    7TRP    CZ2 8231   9.636   7.182   8.028
    7TRP    HZ2 8232   9.708   7.248   8.073
    7TRP    CH2 8233   9.519   7.138   8.096
    7TRP    HH2 8234   9.508   7.165   8.200
    7TRP    CZ3 8235   9.444   7.030   8.040
    7TRP    HZ3 8236   9.369   6.982   8.101
    7TRP    CE3 8237   9.469   6.983   7.909
    7TRP    HE3 8238   9.412   6.899   7.872
    7TRP    CD2 8239   9.581   7.026   7.835
    7TRP      C 8240   9.440   7.052   7.470
    7TRP      O 8241   9.491   7.056   7.362
    8PRO      N 8242   9.387   7.163   7.526
    8PRO     CD 8243   9.293   7.174   7.640
    8PRO    HD2 8244   9.352   7.196   7.728
    8PRO    HD3 8245   9.237   7.080   7.647
    8PRO     CG 8246   9.211   7.300   7.615
    8PRO    HG2 8247   9.173   7.324   7.715
    8PRO    HG3 8248   9.131   7.282   7.543
    8PRO     CB 8249   9.313   7.393   7.550
    8PRO    HB2 8250   9.379   7.436   7.625
    8PRO    HB3 8251   9.256   7.465   7.493
    8PRO     CA 8252   9.387   7.294   7.463
    8PRO     HA 8253   9.338   7.283   7.366
    8PRO      C 8254   9.528   7.356   7.431
    8PRO      O 8255   9.540   7.467   7.379
    9TRP      N 8256   9.637   7.280   7.443
    9TRP      H 8257   9.625   7.186   7.477
    9TRP     CA 8258   9.775   7.312   7.404
    9TRP     HA 8259   9.787   7.390   7.329
    9TRP     CB 8260   9.839   7.374   7.530
    9TRP    HB2 8261   9.787   7.463   7.565
    9TRP    HB3 8262   9.839   7.299   7.609
    9TRP     CG 8263   9.981   7.420   7.519
    9TRP    CD1 8264  10.089   7.369   7.585
    9TRP    HD1 8265  10.084   7.296   7.665
    9TRP    NE1 8266  10.202   7.447   7.559
    9TRP    HE1 8267  10.287   7.447   7.614
    9TRP    CE2 8268  10.175   7.539   7.456
    9TRP    CZ2 8269  10.255   7.626   7.381
    9TRP    HZ2 8270  10.361   7.637   7.402
    9TRP    CH2 8271  10.197   7.696   7.279
    9TRP    HH2 8272  10.261   7.764   7.225
    9TRP    CZ3 8273  10.062   7.694   7.262
    9TRP    HZ3 8274  10.025   7.743   7.173
    9TRP    CE3 8275   9.978   7.612   7.335
    9TRP    HE3 8276   9.873   7.612   7.310
    9TRP    CD2 8277  10.035   7.527   7.434
    9TRP      C 8278   9.847   7.191   7.347
    9TRP      O 8279   9.813   7.084   7.382
   10ARG      N 8280   9.958   7.217   7.279
   10ARG      H 8281   9.999   7.306   7.302
   10ARG     CA 8282  10.054   7.116   7.230
   10ARG     HA 8283   9.999   7.039   7.176
   10ARG     CB 8284  10.164   7.170   7.133
   10ARG    HB2 8285  10.250   7.211   7.187
   10ARG    HB3 8286  10.194   7.086   7.071
   10ARG     CG 8287  10.118   7.285   7.045
   10ARG    HG2 8288  10.027   7.266   6.989
   10ARG    HG3 8289  10.100   7.369   7.110
   10ARG     CD 8290  10.222   7.329   6.944
   10ARG    HD2 8291  10.315   7.335   6.999
   10ARG    HD3 8292  10.248   7.246   6.878
   10ARG     NE 8293  10.172   7.456   6.876
   10ARG     HE 8294  10.081   7.457   6.835
   10ARG     CZ 8295  10.229   7.569   6.875
   10ARG    NH1 8296  10.341   7.596   6.941
   10ARG   HH11 8297  10.386   7.523   6.995
   10ARG   HH12 8298  10.384   7.684   6.921
   10ARG    NH2 8299  10.181   7.670   6.808
   10ARG   HH21 8300  10.081   7.677   6.819
   10ARG   HH22 8301  10.237   7.752   6.822
   10ARG      C 8302  10.116   7.032   7.343
   10ARG      O 8303  10.126   7.071   7.457
   11ARG      N 8304  10.155   6.908   7.308
   11ARG      H 8305  10.160   6.895   7.208
   11ARG     CA 8306  10.213   6.803   7.394
   11ARG     HA 8307  10.286   6.839   7.467
   11ARG     CB 8308  10.107   6.717   7.471
   11ARG    HB2 8309  10.017   6.694   7.415
   11ARG    HB3 8310  10.140   6.621   7.511
   11ARG     CG 8311  10.049   6.794   7.590
   11ARG    HG2 8312  10.126   6.807   7.666
   11ARG    HG3 8313  10.010   6.892   7.565
   11ARG     CD 8314   9.933   6.714   7.648
   11ARG    HD2 8315   9.884   6.778   7.721
   11ARG    HD3 8316   9.855   6.699   7.574
   11ARG     NE 8317   9.981   6.585   7.708
   11ARG     HE 8318   9.986   6.516   7.633
   11ARG     CZ 8319  10.058   6.574   7.816
   11ARG    NH1 8320  10.064   6.675   7.899
   11ARG   HH11 8321  10.006   6.754   7.874
   11ARG   HH12 8322  10.114   6.662   7.985
   11ARG    NH2 8323  10.121   6.469   7.844
   11ARG   HH21 8324  10.113   6.384   7.790
   11ARG   HH22 8325  10.194   6.480   7.913
   11ARG      C 8326  10.283   6.704   7.303
   11ARG      O 8327  10.260   6.695   7.184
   12LYS      N 8328  10.376   6.631   7.365
   12LYS      H 8329  10.371   6.633   7.466
   12LYS     CA 8330  10.455   6.522   7.305
   12LYS     HA 8331  10.403   6.485   7.218
   12LYS     CB 8332  10.595   6.575   7.261
   12LYS    HB2 8333  10.641   6.601   7.356
   12LYS    HB3 8334  10.649   6.491   7.220
   12LYS     CG 8335  10.602   6.694   7.163
   12LYS    HG2 8336  10.534   6.670   7.081
   12LYS    HG3 8337  10.550   6.782   7.201
   12LYS     CD 8338  10.743   6.736   7.116
   12LYS    HD2 8339  10.780   6.637   7.087
   12LYS    HD3 8340  10.739   6.805   7.031
   12LYS     CE 8341  10.837   6.776   7.228
   12LYS    HE2 8342  10.808   6.866   7.280
   12LYS    HE3 8343  10.839   6.703   7.309
   12LYS     NZ 8344  10.973   6.773   7.171
   12LYS    HZ1 8345  10.989   6.857   7.116
   12LYS    HZ2 8346  11.039   6.782   7.246
   12LYS    HZ3 8347  10.994   6.685   7.127
   12LYS      C 8348  10.473   6.396   7.398
   12LYS      O 8349  10.465   6.410   7.518
   13NHE      N 8350  10.512   6.286   7.341
   13NHE    HN1 8351  10.513   6.287   7.240
   13NHE    HN2 8352  10.530   6.207   7.400
    1ILE      N 8353   6.351   1.240   5.687
    1ILE     H1 8354   6.379   1.251   5.590
    1ILE     H2 8355   6.286   1.312   5.715
    1ILE     H3 8356   6.299   1.155   5.704
    1ILE     CA 8357   6.472   1.248   5.772
    1ILE     HA 8358   6.440   1.251   5.876
    1ILE     CB 8359   6.564   1.126   5.766
    1ILE     HB 8360   6.646   1.153   5.834
    1ILE    CG2 8361   6.484   1.013   5.830
    1ILE   HG21 8362   6.405   0.964   5.773
    1ILE   HG22 8363   6.547   0.926   5.849
    1ILE   HG23 8364   6.454   1.040   5.931
    1ILE    CG1 8365   6.607   1.093   5.624
    1ILE   HG12 8366   6.632   1.183   5.569
    1ILE   HG13 8367   6.535   1.030   5.571
    1ILE    CD1 8368   6.743   1.025   5.641
    1ILE   HD11 8369   6.793   1.006   5.545
    1ILE   HD12 8370   6.805   1.091   5.702
    1ILE   HD13 8371   6.735   0.928   5.687
    1ILE      C 8372   6.541   1.381   5.752
    1ILE      O 8373   6.538   1.430   5.635
    2LEU      N 8374   6.607   1.430   5.857
    2LEU      H 8375   6.610   1.370   5.937
    2LEU     CA 8376   6.684   1.556   5.852
    2LEU     HA 8377   6.624   1.627   5.795
    2LEU     CB 8378   6.709   1.609   5.996
    2LEU    HB2 8379   6.766   1.535   6.052
    2LEU    HB3 8380   6.762   1.704   5.997
    2LEU     CG 8381   6.585   1.624   6.083
    2LEU     HG 8382   6.522   1.538   6.103
    2LEU    CD1 8383   6.625   1.684   6.218
    2LEU   HD11 8384   6.691   1.770   6.213
    2LEU   HD12 8385   6.529   1.708   6.266
    2LEU   HD13 8386   6.666   1.614   6.290
    2LEU    CD2 8387   6.493   1.720   6.008
    2LEU   HD21 8388   6.448   1.664   5.926
    2LEU   HD22 8389   6.418   1.754   6.080
    2LEU   HD23 8390   6.546   1.810   5.975
    2LEU      C 8391   6.818   1.531   5.775
    2LEU      O 8392   6.874   1.424   5.781
    3ARG      N 8393   6.871   1.629   5.699
    3ARG      H 8394   6.816   1.712   5.686
    3ARG     CA 8395   7.001   1.620   5.630
    3ARG     HA 8396   7.011   1.513   5.615
    3ARG     CB 8397   6.980   1.686   5.494
    3ARG    HB2 8398   6.964   1.792   5.509
    3ARG    HB3 8399   7.070   1.669   5.434
    3ARG     CG 8400   6.870   1.629   5.403
    3ARG    HG2 8401   6.772   1.655   5.444
    3ARG    HG3 8402   6.869   1.688   5.311
    3ARG     CD 8403   6.876   1.479   5.369
    3ARG    HD2 8404   6.962   1.456   5.306
    3ARG    HD3 8405   6.895   1.410   5.451
    3ARG     NE 8406   6.758   1.428   5.286
    3ARG     HE 8407   6.702   1.497   5.239
    3ARG     CZ 8408   6.729   1.300   5.267
    3ARG    NH1 8409   6.789   1.205   5.330
    3ARG   HH11 8410   6.880   1.225   5.367
    3ARG   HH12 8411   6.752   1.113   5.309
    3ARG    NH2 8412   6.637   1.275   5.178
    3ARG   HH21 8413   6.582   1.349   5.137
    3ARG   HH22 8414   6.595   1.184   5.190
    3ARG      C 8415   7.125   1.651   5.716
    3ARG      O 8416   7.237   1.643   5.663
    4TRP      N 8417   7.105   1.669   5.847
    4TRP      H 8418   7.014   1.644   5.881
    4TRP     CA 8419   7.218   1.668   5.945
    4TRP     HA 8420   7.310   1.647   5.889
    4TRP     CB 8421   7.227   1.811   6.003
    4TRP    HB2 8422   7.284   1.812   6.095
    4TRP    HB3 8423   7.288   1.872   5.935
    4TRP     CG 8424   7.085   1.878   6.041
    4TRP    CD1 8425   7.017   1.835   6.153
    4TRP    HD1 8426   7.035   1.745   6.210
    4TRP    NE1 8427   6.911   1.919   6.172
    4TRP    HE1 8428   6.850   1.928   6.253
    4TRP    CE2 8429   6.897   2.014   6.069
    4TRP    CZ2 8430   6.806   2.112   6.031
    4TRP    HZ2 8431   6.717   2.130   6.088
    4TRP    CH2 8432   6.822   2.194   5.918
    4TRP    HH2 8433   6.755   2.275   5.894
    4TRP    CZ3 8434   6.933   2.168   5.832
    4TRP    HZ3 8435   6.951   2.216   5.736
    4TRP    CE3 8436   7.021   2.066   5.868
    4TRP    HE3 8437   7.114   2.049   5.815
    4TRP    CD2 8438   7.010   1.989   5.987
    4TRP      C 8439   7.205   1.549   6.049
    4TRP      O 8440   7.096   1.498   6.064
    5PRO      N 8441   7.317   1.505   6.117
    5PRO     CD 8442   7.452   1.547   6.103
    5PRO    HD2 8443   7.463   1.656   6.103
    5PRO    HD3 8444   7.493   1.511   6.009
    5PRO     CG 8445   7.530   1.485   6.218
    5PRO    HG2 8446   7.518   1.549   6.306
    5PRO    HG3 8447   7.635   1.464   6.195
    5PRO     CB 8448   7.443   1.355   6.257
    5PRO    HB2 8449   7.452   1.329   6.362
    5PRO    HB3 8450   7.469   1.277   6.187
    5PRO     CA 8451   7.296   1.401   6.221
    5PRO     HA 8452   7.247   1.319   6.170
    5PRO      C 8453   7.212   1.452   6.338
    5PRO      O 8454   7.240   1.555   6.399
    6TRP      N 8455   7.113   1.369   6.365
    6TRP      H 8456   7.106   1.284   6.312
    6TRP     CA 8457   7.006   1.394   6.467
    6TRP     HA 8458   7.006   1.501   6.484
    6TRP     CB 8459   6.863   1.376   6.415
    6TRP    HB2 8460   6.843   1.448   6.336
    6TRP    HB3 8461   6.851   1.274   6.379
    6TRP     CG 8462   6.768   1.393   6.530
    6TRP    CD1 8463   6.688   1.292   6.578
    6TRP    HD1 8464   6.693   1.189   6.546
    6TRP    NE1 8465   6.618   1.333   6.680
    6TRP    HE1 8466   6.543   1.284   6.725
    6TRP    CE2 8467   6.639   1.469   6.698
    6TRP    CZ2 8468   6.585   1.561   6.796
    6TRP    HZ2 8469   6.504   1.544   6.867
    6TRP    CH2 8470   6.628   1.694   6.798
    6TRP    HH2 8471   6.590   1.767   6.869
    6TRP    CZ3 8472   6.720   1.735   6.704
    6TRP    HZ3 8473   6.746   1.840   6.691
    6TRP    CE3 8474   6.780   1.645   6.620
    6TRP    HE3 8475   6.835   1.689   6.539
    6TRP    CD2 8476   6.742   1.509   6.610
    6TRP      C 8477   7.025   1.314   6.598
    6TRP      O 8478   7.028   1.193   6.597
    7TRP      N 8479   7.040   1.382   6.713
    7TRP      H 8480   7.055   1.482   6.703
    7TRP     CA 8481   7.019   1.314   6.839
    7TRP     HA 8482   6.989   1.210   6.828
    7TRP     CB 8483   7.157   1.303   6.903
    7TRP    HB2 8484   7.234   1.263   6.836
    7TRP    HB3 8485   7.191   1.402   6.933
    7TRP     CG 8486   7.161   1.223   7.023
    7TRP    CD1 8487   7.221   1.252   7.136
    7TRP    HD1 8488   7.271   1.347   7.153
    7TRP    NE1 8489   7.202   1.149   7.225
    7TRP    HE1 8490   7.233   1.149   7.321
    7TRP    CE2 8491   7.143   1.035   7.168
    7TRP    CZ2 8492   7.117   0.904   7.219
    7TRP    HZ2 8493   7.142   0.879   7.321
    7TRP    CH2 8494   7.069   0.808   7.125
    7TRP    HH2 8495   7.069   0.704   7.156
    7TRP    CZ3 8496   7.065   0.844   6.987
    7TRP    HZ3 8497   7.050   0.766   6.914
    7TRP    CE3 8498   7.081   0.977   6.945
    7TRP    HE3 8499   7.080   1.000   6.839
    7TRP    CD2 8500   7.124   1.078   7.034
    7TRP      C 8501   6.915   1.390   6.919
    7TRP      O 8502   6.926   1.508   6.936
    8PRO      N 8503   6.821   1.319   6.985
    8PRO     CD 8504   6.769   1.183   6.955
    8PRO    HD2 8505   6.822   1.114   7.021
    8PRO    HD3 8506   6.784   1.164   6.848
    8PRO     CG 8507   6.625   1.182   7.005
    8PRO    HG2 8508   6.604   1.075   7.015
    8PRO    HG3 8509   6.558   1.230   6.933
    8PRO     CB 8510   6.631   1.270   7.129
    8PRO    HB2 8511   6.674   1.215   7.212
    8PRO    HB3 8512   6.531   1.307   7.144
    8PRO     CA 8513   6.728   1.377   7.081
    8PRO     HA 8514   6.674   1.457   7.028
    8PRO      C 8515   6.791   1.444   7.208
    8PRO      O 8516   6.720   1.495   7.295
    9TRP      N 8517   6.922   1.465   7.212
    9TRP      H 8518   6.978   1.431   7.135
    9TRP     CA 8519   6.999   1.539   7.313
    9TRP     HA 8520   6.943   1.612   7.371
    9TRP     CB 8521   7.040   1.434   7.418
    9TRP    HB2 8522   6.955   1.384   7.464
    9TRP    HB3 8523   7.103   1.360   7.369
    9TRP     CG 8524   7.119   1.482   7.536
    9TRP    CD1 8525   7.247   1.449   7.569
    9TRP    HD1 8526   7.305   1.373   7.518
    9TRP    NE1 8527   7.280   1.504   7.693
    9TRP    HE1 8528   7.358   1.474   7.751
    9TRP    CE2 8529   7.180   1.593   7.735
    9TRP    CZ2 8530   7.172   1.685   7.841
    9TRP    HZ2 8531   7.250   1.693   7.914
    9TRP    CH2 8532   7.061   1.765   7.847
    9TRP    HH2 8533   7.056   1.833   7.932
    9TRP    CZ3 8534   6.955   1.745   7.765
    9TRP    HZ3 8535   6.876   1.818   7.769
    9TRP    CE3 8536   6.958   1.654   7.660
    9TRP    HE3 8537   6.872   1.649   7.596
    9TRP    CD2 8538   7.075   1.576   7.641
    9TRP      C 8539   7.114   1.617   7.249
    9TRP      O 8540   7.160   1.576   7.150
   10ARG      N 8541   7.167   1.712   7.325
   10ARG      H 8542   7.150   1.698   7.424
   10ARG     CA 8543   7.290   1.788   7.294
   10ARG     HA 8544   7.281   1.826   7.193
   10ARG     CB 8545   7.318   1.909   7.387
   10ARG    HB2 8546   7.372   1.881   7.478
   10ARG    HB3 8547   7.378   1.980   7.328
   10ARG     CG 8548   7.194   1.979   7.440
   10ARG    HG2 8549   7.123   2.008   7.362
   10ARG    HG3 8550   7.144   1.909   7.505
   10ARG     CD 8551   7.223   2.103   7.520
   10ARG    HD2 8552   7.304   2.076   7.587
   10ARG    HD3 8553   7.278   2.176   7.460
   10ARG     NE 8554   7.092   2.152   7.582
   10ARG     HE 8555   7.013   2.167   7.524
   10ARG     CZ 8556   7.068   2.166   7.706
   10ARG    NH1 8557   7.153   2.132   7.802
   10ARG   HH11 8558   7.243   2.094   7.778
   10ARG   HH12 8559   7.128   2.161   7.895
   10ARG    NH2 8560   6.955   2.214   7.749
   10ARG   HH21 8561   6.877   2.176   7.697
   10ARG   HH22 8562   6.951   2.214   7.849
   10ARG      C 8563   7.414   1.698   7.279
   10ARG      O 8564   7.424   1.590   7.333
   11ARG      N 8565   7.510   1.745   7.199
   11ARG      H 8566   7.498   1.843   7.177
   11ARG     CA 8567   7.638   1.682   7.161
   11ARG     HA 8568   7.689   1.630   7.243
   11ARG     CB 8569   7.627   1.580   7.042
   11ARG    HB2 8570   7.558   1.610   6.962
   11ARG    HB3 8571   7.719   1.553   6.990
   11ARG     CG 8572   7.564   1.448   7.087
   11ARG    HG2 8573   7.632   1.396   7.153
   11ARG    HG3 8574   7.469   1.459   7.138
   11ARG     CD 8575   7.537   1.363   6.964
   11ARG    HD2 8576   7.478   1.278   6.997
   11ARG    HD3 8577   7.469   1.413   6.895
   11ARG     NE 8578   7.665   1.321   6.897
   11ARG     HE 8579   7.693   1.396   6.834
   11ARG     CZ 8580   7.755   1.239   6.949
   11ARG    NH1 8581   7.718   1.158   7.045
   11ARG   HH11 8582   7.621   1.164   7.071
   11ARG   HH12 8583   7.785   1.089   7.077
   11ARG    NH2 8584   7.874   1.232   6.906
   11ARG   HH21 8585   7.906   1.284   6.826
   11ARG   HH22 8586   7.939   1.185   6.968
   11ARG      C 8587   7.729   1.790   7.109
   11ARG      O 8588   7.690   1.898   7.072
   12LYS      N 8589   7.859   1.758   7.115
   12LYS      H 8590   7.877   1.659   7.128
   12LYS     CA 8591   7.971   1.840   7.066
   12LYS     HA 8592   7.933   1.910   6.992
   12LYS     CB 8593   8.036   1.919   7.183
   12LYS    HB2 8594   8.077   1.840   7.245
   12LYS    HB3 8595   8.119   1.976   7.141
   12LYS     CG 8596   7.946   2.013   7.267
   12LYS    HG2 8597   7.890   2.074   7.197
   12LYS    HG3 8598   7.863   1.960   7.313
   12LYS     CD 8599   8.018   2.095   7.376
   12LYS    HD2 8600   8.099   2.135   7.315
   12LYS    HD3 8601   7.954   2.174   7.416
   12LYS     CE 8602   8.092   2.012   7.480
   12LYS    HE2 8603   8.027   1.952   7.543
   12LYS    HE3 8604   8.156   1.937   7.435
   12LYS     NZ 8605   8.184   2.105   7.548
   12LYS    HZ1 8606   8.133   2.160   7.617
   12LYS    HZ2 8607   8.247   2.050   7.605
   12LYS    HZ3 8608   8.243   2.155   7.484
   12LYS      C 8609   8.082   1.759   6.989
   12LYS      O 8610   8.096   1.640   7.013
   13NHE      N 8611   8.165   1.826   6.915
   13NHE    HN1 8612   8.141   1.924   6.901
   13NHE    HN2 8613   8.240   1.777   6.872
    1ILE      N 8614   1.728   8.433   2.231
    1ILE     H1 8615   1.705   8.490   2.151
    1ILE     H2 8616   1.814   8.460   2.273
    1ILE     H3 8617   1.662   8.443   2.307
    1ILE     CA 8618   1.738   8.291   2.186
    1ILE     HA 8619   1.776   8.233   2.270
    1ILE     CB 8620   1.606   8.223   2.152
    1ILE     HB 8621   1.636   8.123   2.123
    1ILE    CG2 8622   1.531   8.213   2.286
    1ILE   HG21 8623   1.483   8.301   2.327
    1ILE   HG22 8624   1.444   8.148   2.277
    1ILE   HG23 8625   1.591   8.158   2.358
    1ILE    CG1 8626   1.526   8.301   2.048
    1ILE   HG12 8627   1.591   8.337   1.970
    1ILE   HG13 8628   1.464   8.380   2.092
    1ILE    CD1 8629   1.443   8.194   1.978
    1ILE   HD11 8630   1.389   8.233   1.890
    1ILE   HD12 8631   1.511   8.115   1.946
    1ILE   HD13 8632   1.366   8.152   2.041
    1ILE      C 8633   1.845   8.278   2.081
    1ILE      O 8634   1.859   8.374   2.000
    2LEU      N 8635   1.910   8.161   2.077
    2LEU      H 8636   1.876   8.091   2.140
    2LEU     CA 8637   2.014   8.131   1.977
    2LEU     HA 8638   2.076   8.221   1.966
    2LEU     CB 8639   2.101   8.011   2.025
    2LEU    HB2 8640   2.037   7.923   2.038
    2LEU    HB3 8641   2.182   7.987   1.956
    2LEU     CG 8642   2.161   8.024   2.163
    2LEU     HG 8643   2.097   8.040   2.249
    2LEU    CD1 8644   2.250   7.904   2.193
    2LEU   HD11 8645   2.318   7.875   2.113
    2LEU   HD12 8646   2.303   7.930   2.285
    2LEU   HD13 8647   2.197   7.814   2.226
    2LEU    CD2 8648   2.247   8.152   2.158
    2LEU   HD21 8649   2.178   8.237   2.163
    2LEU   HD22 8650   2.313   8.148   2.246
    2LEU   HD23 8651   2.313   8.153   2.071
    2LEU      C 8652   1.945   8.101   1.840
    2LEU      O 8653   1.836   8.049   1.835
    3ARG      N 8654   2.006   8.137   1.724
    3ARG      H 8655   2.090   8.191   1.732
    3ARG     CA 8656   1.955   8.105   1.590
    3ARG     HA 8657   1.848   8.098   1.607
    3ARG     CB 8658   1.982   8.229   1.506
    3ARG    HB2 8659   2.089   8.240   1.493
    3ARG    HB3 8660   1.933   8.217   1.409
    3ARG     CG 8661   1.922   8.363   1.554
    3ARG    HG2 8662   1.975   8.397   1.642
    3ARG    HG3 8663   1.951   8.440   1.482
    3ARG     CD 8664   1.770   8.368   1.577
    3ARG    HD2 8665   1.715   8.359   1.483
    3ARG    HD3 8666   1.724   8.285   1.632
    3ARG     NE 8667   1.718   8.500   1.634
    3ARG     HE 8668   1.780   8.579   1.626
    3ARG     CZ 8669   1.598   8.519   1.684
    3ARG    NH1 8670   1.516   8.422   1.706
    3ARG   HH11 8671   1.529   8.338   1.653
    3ARG   HH12 8672   1.429   8.451   1.751
    3ARG    NH2 8673   1.564   8.642   1.710
    3ARG   HH21 8674   1.632   8.717   1.704
    3ARG   HH22 8675   1.489   8.649   1.777
    3ARG      C 8676   1.987   7.964   1.536
    3ARG      O 8677   1.944   7.932   1.424
    4TRP      N 8678   2.045   7.879   1.622
    4TRP      H 8679   2.047   7.908   1.718
    4TRP     CA 8680   2.052   7.732   1.594
    4TRP     HA 8681   2.000   7.714   1.499
    4TRP     CB 8682   2.202   7.699   1.575
    4TRP    HB2 8683   2.220   7.592   1.586
    4TRP    HB3 8684   2.230   7.719   1.471
    4TRP     CG 8685   2.301   7.767   1.683
    4TRP    CD1 8686   2.305   7.720   1.812
    4TRP    HD1 8687   2.233   7.655   1.861
    4TRP    NE1 8688   2.407   7.783   1.877
    4TRP    HE1 8689   2.450   7.761   1.966
    4TRP    CE2 8690   2.470   7.881   1.798
    4TRP    CZ2 8691   2.568   7.979   1.812
    4TRP    HZ2 8692   2.617   7.994   1.907
    4TRP    CH2 8693   2.609   8.064   1.709
    4TRP    HH2 8694   2.690   8.135   1.720
    4TRP    CZ3 8695   2.541   8.057   1.584
    4TRP    HZ3 8696   2.556   8.124   1.500
    4TRP    CE3 8697   2.440   7.961   1.571
    4TRP    HE3 8698   2.393   7.941   1.476
    4TRP    CD2 8699   2.403   7.870   1.673
    4TRP      C 8700   1.972   7.647   1.702
    4TRP      O 8701   1.948   7.700   1.809
    5PRO      N 8702   1.931   7.520   1.671
    5PRO     CD 8703   1.943   7.450   1.548
    5PRO    HD2 8704   2.043   7.454   1.505
    5PRO    HD3 8705   1.875   7.490   1.474
    5PRO     CG 8706   1.904   7.304   1.576
    5PRO    HG2 8707   1.991   7.252   1.615
    5PRO    HG3 8708   1.859   7.253   1.491
    5PRO     CB 8709   1.808   7.315   1.705
    5PRO    HB2 8710   1.812   7.226   1.767
    5PRO    HB3 8711   1.709   7.343   1.669
    5PRO     CA 8712   1.867   7.441   1.780
    5PRO     HA 8713   1.783   7.503   1.813
    5PRO      C 8714   1.963   7.412   1.895
    5PRO      O 8715   2.073   7.359   1.877
    6TRP      N 8716   1.910   7.444   2.011
    6TRP      H 8717   1.816   7.480   2.013
    6TRP     CA 8718   1.981   7.438   2.143
    6TRP     HA 8719   2.087   7.437   2.118
    6TRP     CB 8720   1.974   7.566   2.226
    6TRP    HB2 8721   2.023   7.648   2.172
    6TRP    HB3 8722   1.871   7.590   2.246
    6TRP     CG 8723   2.040   7.542   2.358
    6TRP    CD1 8724   1.973   7.544   2.477
    6TRP    HD1 8725   1.866   7.553   2.489
    6TRP    NE1 8726   2.053   7.515   2.577
    6TRP    HE1 8727   2.032   7.524   2.675
    6TRP    CE2 8728   2.183   7.504   2.529
    6TRP    CZ2 8729   2.307   7.474   2.597
    6TRP    HZ2 8730   2.325   7.469   2.704
    6TRP    CH2 8731   2.425   7.460   2.523
    6TRP    HH2 8732   2.520   7.439   2.570
    6TRP    CZ3 8733   2.421   7.478   2.387
    6TRP    HZ3 8734   2.511   7.484   2.327
    6TRP    CE3 8735   2.301   7.494   2.322
    6TRP    HE3 8736   2.310   7.525   2.219
    6TRP    CD2 8737   2.177   7.511   2.388
    6TRP      C 8738   1.940   7.317   2.229
    6TRP      O 8739   1.825   7.302   2.265
    7TRP      N 8740   2.035   7.227   2.263
    7TRP      H 8741   2.123   7.236   2.215
    7TRP     CA 8742   2.010   7.137   2.374
    7TRP     HA 8743   1.914   7.153   2.423
    7TRP     CB 8744   1.994   6.999   2.310
    7TRP    HB2 8745   1.924   6.996   2.227
    7TRP    HB3 8746   2.090   6.966   2.271
    7TRP     CG 8747   1.952   6.896   2.403
    7TRP    CD1 8748   2.002   6.775   2.414
    7TRP    HD1 8749   2.087   6.741   2.356
    7TRP    NE1 8750   1.934   6.707   2.512
    7TRP    HE1 8751   1.955   6.615   2.545
    7TRP    CE2 8752   1.820   6.775   2.560
    7TRP    CZ2 8753   1.716   6.739   2.650
    7TRP    HZ2 8754   1.717   6.642   2.698
    7TRP    CH2 8755   1.607   6.829   2.662
    7TRP    HH2 8756   1.518   6.794   2.712
    7TRP    CZ3 8757   1.602   6.941   2.574
    7TRP    HZ3 8758   1.510   6.998   2.567
    7TRP    CE3 8759   1.713   6.978   2.495
    7TRP    HE3 8760   1.704   7.062   2.427
    7TRP    CD2 8761   1.826   6.895   2.483
    7TRP      C 8762   2.123   7.150   2.474
    7TRP      O 8763   2.237   7.144   2.438
    8PRO      N 8764   2.091   7.152   2.606
    8PRO     CD 8765   1.964   7.193   2.670
    8PRO    HD2 8766   1.909   7.101   2.691
    8PRO    HD3 8767   1.913   7.262   2.603
    8PRO     CG 8768   2.002   7.247   2.808
    8PRO    HG2 8769   1.908   7.239   2.863
    8PRO    HG3 8770   2.039   7.349   2.801
    8PRO     CB 8771   2.119   7.158   2.847
    8PRO    HB2 8772   2.085   7.061   2.881
    8PRO    HB3 8773   2.177   7.214   2.919
    8PRO     CA 8774   2.190   7.145   2.713
    8PRO     HA 8775   2.260   7.228   2.697
    8PRO      C 8776   2.278   7.016   2.718
    8PRO      O 8777   2.364   7.000   2.806
    9TRP      N 8778   2.276   6.931   2.615
    9TRP      H 8779   2.212   6.950   2.540
    9TRP     CA 8780   2.362   6.814   2.592
    9TRP     HA 8781   2.457   6.813   2.645
    9TRP     CB 8782   2.286   6.695   2.656
    9TRP    HB2 8783   2.266   6.709   2.762
    9TRP    HB3 8784   2.191   6.684   2.603
    9TRP     CG 8785   2.351   6.561   2.650
    9TRP    CD1 8786   2.307   6.451   2.583
    9TRP    HD1 8787   2.211   6.443   2.534
    9TRP    NE1 8788   2.388   6.341   2.613
    9TRP    HE1 8789   2.363   6.244   2.597
    9TRP    CE2 8790   2.502   6.382   2.684
    9TRP    CZ2 8791   2.620   6.318   2.722
    9TRP    HZ2 8792   2.635   6.213   2.703
    9TRP    CH2 8793   2.717   6.392   2.784
    9TRP    HH2 8794   2.806   6.339   2.815
    9TRP    CZ3 8795   2.693   6.521   2.822
    9TRP    HZ3 8796   2.777   6.575   2.860
    9TRP    CE3 8797   2.577   6.588   2.788
    9TRP    HE3 8798   2.568   6.691   2.817
    9TRP    CD2 8799   2.477   6.519   2.713
    9TRP      C 8800   2.397   6.798   2.445
    9TRP      O 8801   2.321   6.840   2.365
   10ARG      N 8802   2.498   6.717   2.419
   10ARG      H 8803   2.517   6.651   2.493
   10ARG     CA 8804   2.540   6.671   2.284
   10ARG     HA 8805   2.548   6.758   2.220
   10ARG     CB 8806   2.676   6.596   2.278
   10ARG    HB2 8807   2.665   6.489   2.300
   10ARG    HB3 8808   2.715   6.611   2.178
   10ARG     CG 8809   2.778   6.643   2.381
   10ARG    HG2 8810   2.795   6.750   2.380
   10ARG    HG3 8811   2.740   6.617   2.478
   10ARG     CD 8812   2.913   6.577   2.366
   10ARG    HD2 8813   2.893   6.472   2.353
   10ARG    HD3 8814   2.955   6.596   2.267
   10ARG     NE 8815   3.000   6.618   2.484
   10ARG     HE 8816   3.011   6.716   2.506
   10ARG     CZ 8817   3.052   6.541   2.571
   10ARG    NH1 8818   3.033   6.410   2.573
   10ARG   HH11 8819   2.975   6.366   2.503
   10ARG   HH12 8820   3.092   6.358   2.636
   10ARG    NH2 8821   3.130   6.586   2.664
   10ARG   HH21 8822   3.093   6.670   2.705
   10ARG   HH22 8823   3.160   6.512   2.725
   10ARG      C 8824   2.429   6.593   2.211
   10ARG      O 8825   2.341   6.533   2.269
   11ARG      N 8826   2.433   6.599   2.077
   11ARG      H 8827   2.521   6.634   2.042
   11ARG     CA 8828   2.340   6.539   1.979
   11ARG     HA 8829   2.306   6.438   2.005
   11ARG     CB 8830   2.212   6.625   1.951
   11ARG    HB2 8831   2.229   6.733   1.946
   11ARG    HB3 8832   2.156   6.604   1.860
   11ARG     CG 8833   2.112   6.616   2.066
   11ARG    HG2 8834   2.070   6.516   2.069
   11ARG    HG3 8835   2.154   6.639   2.164
   11ARG     CD 8836   2.001   6.717   2.042
   11ARG    HD2 8837   1.941   6.720   2.132
   11ARG    HD3 8838   2.040   6.819   2.037
   11ARG     NE 8839   1.920   6.683   1.920
   11ARG     HE 8840   1.968   6.721   1.839
   11ARG     CZ 8841   1.842   6.576   1.909
   11ARG    NH1 8842   1.800   6.516   2.018
   11ARG   HH11 8843   1.830   6.559   2.104
   11ARG   HH12 8844   1.733   6.442   2.008
   11ARG    NH2 8845   1.802   6.532   1.797
   11ARG   HH21 8846   1.823   6.579   1.710
   11ARG   HH22 8847   1.765   6.438   1.799
   11ARG      C 8848   2.412   6.533   1.846
   11ARG      O 8849   2.510   6.598   1.820
   12LYS      N 8850   2.360   6.442   1.763
   12LYS      H 8851   2.268   6.409   1.788
   12LYS     CA 8852   2.403   6.417   1.624
   12LYS     HA 8853   2.456   6.506   1.588
   12LYS     CB 8854   2.500   6.296   1.618
   12LYS    HB2 8855   2.436   6.213   1.648
   12LYS    HB3 8856   2.527   6.281   1.514
   12LYS     CG 8857   2.628   6.299   1.705
   12LYS    HG2 8858   2.676   6.395   1.687
   12LYS    HG3 8859   2.606   6.311   1.810
   12LYS     CD 8860   2.725   6.180   1.688
   12LYS    HD2 8861   2.731   6.180   1.579
   12LYS    HD3 8862   2.822   6.199   1.735
   12LYS     CE 8863   2.663   6.044   1.719
   12LYS    HE2 8864   2.636   6.031   1.823
   12LYS    HE3 8865   2.569   6.029   1.668
   12LYS     NZ 8866   2.754   5.944   1.660
   12LYS    HZ1 8867   2.834   5.930   1.720
   12LYS    HZ2 8868   2.708   5.854   1.663
   12LYS    HZ3 8869   2.773   5.961   1.562
   12LYS      C 8870   2.286   6.396   1.521
   12LYS      O 8871   2.179   6.356   1.563
   13NHE      N 8872   2.314   6.407   1.395
   13NHE    HN1 8873   2.406   6.444   1.374
   13NHE    HN2 8874   2.241   6.387   1.329
    1ILE      N 8875   3.700   6.572   9.149
    1ILE     H1 8876   3.697   6.555   9.248
    1ILE     H2 8877   3.624   6.529   9.100
    1ILE     H3 8878   3.689   6.670   9.124
    1ILE     CA 8879   3.828   6.518   9.096
    1ILE     HA 8880   3.824   6.524   8.987
    1ILE     CB 8881   3.953   6.598   9.132
    1ILE     HB 8882   4.034   6.541   9.085
    1ILE    CG2 8883   3.939   6.731   9.058
    1ILE   HG21 8884   3.871   6.807   9.097
    1ILE   HG22 8885   4.031   6.788   9.061
    1ILE   HG23 8886   3.928   6.713   8.951
    1ILE    CG1 8887   3.967   6.617   9.283
    1ILE   HG12 8888   3.943   6.525   9.336
    1ILE   HG13 8889   3.912   6.704   9.320
    1ILE    CD1 8890   4.118   6.630   9.304
    1ILE   HD11 8891   4.146   6.631   9.410
    1ILE   HD12 8892   4.165   6.545   9.256
    1ILE   HD13 8893   4.158   6.722   9.264
    1ILE      C 8894   3.837   6.370   9.124
    1ILE      O 8895   3.787   6.329   9.232
    2LEU      N 8896   3.905   6.296   9.034
    2LEU      H 8897   3.950   6.349   8.962
    2LEU     CA 8898   3.927   6.152   9.050
    2LEU     HA 8899   3.832   6.109   9.086
    2LEU     CB 8900   3.966   6.089   8.913
    2LEU    HB2 8901   4.058   6.135   8.878
    2LEU    HB3 8902   3.980   5.981   8.919
    2LEU     CG 8903   3.873   6.118   8.797
    2LEU     HG 8904   3.852   6.220   8.769
    2LEU    CD1 8905   3.920   6.043   8.673
    2LEU   HD11 8906   3.948   5.939   8.688
    2LEU   HD12 8907   3.838   6.055   8.601
    2LEU   HD13 8908   4.001   6.092   8.618
    2LEU    CD2 8909   3.736   6.064   8.841
    2LEU   HD21 8910   3.695   6.136   8.913
    2LEU   HD22 8911   3.675   6.058   8.751
    2LEU   HD23 8912   3.742   5.962   8.880
    2LEU      C 8913   4.036   6.128   9.159
    2LEU      O 8914   4.127   6.207   9.174
    3ARG      N 8915   4.029   6.020   9.239
    3ARG      H 8916   3.946   5.963   9.233
    3ARG     CA 8917   4.131   5.982   9.338
    3ARG     HA 8918   4.175   6.078   9.363
    3ARG     CB 8919   4.055   5.933   9.460
    3ARG    HB2 8920   4.006   5.840   9.435
    3ARG    HB3 8921   4.125   5.918   9.542
    3ARG     CG 8922   3.952   6.028   9.525
    3ARG    HG2 8923   3.866   6.039   9.459
    3ARG    HG3 8924   3.907   5.976   9.610
    3ARG     CD 8925   4.004   6.167   9.569
    3ARG    HD2 8926   4.073   6.159   9.653
    3ARG    HD3 8927   4.067   6.222   9.500
    3ARG     NE 8928   3.895   6.260   9.624
    3ARG     HE 8929   3.809   6.217   9.651
    3ARG     CZ 8930   3.911   6.390   9.644
    3ARG    NH1 8931   4.015   6.455   9.604
    3ARG   HH11 8932   4.099   6.401   9.590
    3ARG   HH12 8933   4.010   6.555   9.621
    3ARG    NH2 8934   3.815   6.450   9.709
    3ARG   HH21 8935   3.728   6.403   9.730
    3ARG   HH22 8936   3.814   6.550   9.693
    3ARG      C 8937   4.253   5.905   9.284
    3ARG      O 8938   4.344   5.874   9.363
    4TRP      N 8939   4.263   5.892   9.151
    4TRP      H 8940   4.198   5.948   9.097
    4TRP     CA 8941   4.389   5.849   9.085
    4TRP     HA 8942   4.465   5.836   9.163
    4TRP     CB 8943   4.360   5.711   9.022
    4TRP    HB2 8944   4.434   5.686   8.946
    4TRP    HB3 8945   4.375   5.634   9.098
    4TRP     CG 8946   4.219   5.700   8.945
    4TRP    CD1 8947   4.201   5.761   8.823
    4TRP    HD1 8948   4.265   5.836   8.778
    4TRP    NE1 8949   4.080   5.722   8.773
    4TRP    HE1 8950   4.044   5.733   8.679
    4TRP    CE2 8951   4.007   5.641   8.862
    4TRP    CZ2 8952   3.881   5.584   8.870
    4TRP    HZ2 8953   3.809   5.598   8.791
    4TRP    CH2 8954   3.837   5.506   8.978
    4TRP    HH2 8955   3.741   5.456   8.979
    4TRP    CZ3 8956   3.924   5.491   9.090
    4TRP    HZ3 8957   3.898   5.443   9.184
    4TRP    CE3 8958   4.049   5.554   9.084
    4TRP    HE3 8959   4.125   5.536   9.159
    4TRP    CD2 8960   4.097   5.626   8.971
    4TRP      C 8961   4.447   5.961   8.989
    4TRP      O 8962   4.371   6.048   8.950
    5PRO      N 8963   4.580   5.959   8.954
    5PRO     CD 8964   4.682   5.871   8.998
    5PRO    HD2 8965   4.653   5.766   8.994
    5PRO    HD3 8966   4.709   5.892   9.101
    5PRO     CG 8967   4.805   5.897   8.910
    5PRO    HG2 8968   4.793   5.839   8.818
    5PRO    HG3 8969   4.900   5.879   8.959
    5PRO     CB 8970   4.783   6.048   8.859
    5PRO    HB2 8971   4.828   6.066   8.762
    5PRO    HB3 8972   4.817   6.114   8.939
    5PRO     CA 8973   4.626   6.060   8.855
    5PRO     HA 8974   4.598   6.156   8.898
    5PRO      C 8975   4.561   6.041   8.718
    5PRO      O 8976   4.565   5.932   8.658
    6TRP      N 8977   4.510   6.153   8.672
    6TRP      H 8978   4.520   6.236   8.728
    6TRP     CA 8979   4.431   6.166   8.545
    6TRP     HA 8980   4.396   6.066   8.523
    6TRP     CB 8981   4.296   6.237   8.562
    6TRP    HB2 8982   4.231   6.179   8.629
    6TRP    HB3 8983   4.312   6.337   8.600
    6TRP     CG 8984   4.233   6.252   8.426
    6TRP    CD1 8985   4.211   6.374   8.367
    6TRP    HD1 8986   4.244   6.470   8.405
    6TRP    NE1 8987   4.159   6.359   8.248
    6TRP    HE1 8988   4.121   6.431   8.190
    6TRP    CE2 8989   4.133   6.224   8.226
    6TRP    CZ2 8990   4.076   6.155   8.112
    6TRP    HZ2 8991   4.028   6.199   8.025
    6TRP    CH2 8992   4.068   6.016   8.112
    6TRP    HH2 8993   4.025   5.960   8.030
    6TRP    CZ3 8994   4.111   5.946   8.223
    6TRP    HZ3 8995   4.093   5.841   8.236
    6TRP    CE3 8996   4.176   6.012   8.325
    6TRP    HE3 8997   4.189   5.952   8.414
    6TRP    CD2 8998   4.188   6.152   8.335
    6TRP      C 8999   4.510   6.230   8.430
    6TRP      O 9000   4.557   6.341   8.439
    7TRP      N 9001   4.528   6.157   8.317
    7TRP      H 9002   4.503   6.059   8.324
    7TRP     CA 9003   4.566   6.225   8.195
    7TRP     HA 9004   4.574   6.333   8.205
    7TRP     CB 9005   4.710   6.183   8.168
    7TRP    HB2 9006   4.776   6.194   8.254
    7TRP    HB3 9007   4.712   6.077   8.140
    7TRP     CG 9008   4.773   6.252   8.058
    7TRP    CD1 9009   4.845   6.200   7.961
    7TRP    HD1 9010   4.860   6.093   7.951
    7TRP    NE1 9011   4.888   6.300   7.878
    7TRP    HE1 9012   4.940   6.286   7.793
    7TRP    CE2 9013   4.861   6.429   7.926
    7TRP    CZ2 9014   4.898   6.559   7.879
    7TRP    HZ2 9015   4.956   6.570   7.789
    7TRP    CH2 9016   4.867   6.669   7.964
    7TRP    HH2 9017   4.912   6.764   7.942
    7TRP    CZ3 9018   4.815   6.641   8.094
    7TRP    HZ3 9019   4.811   6.721   8.167
    7TRP    CE3 9020   4.770   6.512   8.130
    7TRP    HE3 9021   4.734   6.495   8.231
    7TRP    CD2 9022   4.795   6.400   8.048
    7TRP      C 9023   4.466   6.190   8.087
    7TRP      O 9024   4.437   6.075   8.065
    8PRO      N 9025   4.423   6.289   8.005
    8PRO     CD 9026   4.419   6.435   8.030
    8PRO    HD2 9027   4.507   6.478   7.984
    8PRO    HD3 9028   4.412   6.450   8.138
    8PRO     CG 9029   4.302   6.488   7.946
    8PRO    HG2 9030   4.325   6.594   7.938
    8PRO    HG3 9031   4.207   6.469   7.996
    8PRO     CB 9032   4.308   6.400   7.822
    8PRO    HB2 9033   4.387   6.432   7.755
    8PRO    HB3 9034   4.208   6.401   7.779
    8PRO     CA 9035   4.343   6.266   7.885
    8PRO     HA 9036   4.253   6.213   7.917
    8PRO      C 9037   4.408   6.177   7.773
    8PRO      O 9038   4.348   6.153   7.668
    9TRP      N 9039   4.519   6.109   7.800
    9TRP      H 9040   4.562   6.123   7.890
    9TRP     CA 9041   4.587   6.009   7.717
    9TRP     HA 9042   4.525   5.960   7.642
    9TRP     CB 9043   4.688   6.089   7.632
    9TRP    HB2 9044   4.642   6.165   7.570
    9TRP    HB3 9045   4.759   6.136   7.700
    9TRP     CG 9046   4.772   6.011   7.534
    9TRP    CD1 9047   4.907   5.994   7.537
    9TRP    HD1 9048   4.974   6.045   7.605
    9TRP    NE1 9049   4.948   5.928   7.421
    9TRP    HE1 9050   5.043   5.925   7.387
    9TRP    CE2 9051   4.837   5.880   7.350
    9TRP    CZ2 9052   4.824   5.795   7.240
    9TRP    HZ2 9053   4.909   5.756   7.187
    9TRP    CH2 9054   4.697   5.760   7.200
    9TRP    HH2 9055   4.689   5.696   7.113
    9TRP    CZ3 9056   4.588   5.820   7.255
    9TRP    HZ3 9057   4.492   5.781   7.227
    9TRP    CE3 9058   4.597   5.907   7.363
    9TRP    HE3 9059   4.505   5.945   7.405
    9TRP    CD2 9060   4.725   5.937   7.416
    9TRP      C 9061   4.645   5.897   7.801
    9TRP      O 9062   4.677   5.920   7.912
   10ARG      N 9063   4.678   5.787   7.735
   10ARG      H 9064   4.693   5.802   7.636
   10ARG     CA 9065   4.753   5.671   7.790
   10ARG     HA 9066   4.706   5.642   7.883
   10ARG     CB 9067   4.758   5.545   7.699
   10ARG    HB2 9068   4.840   5.550   7.626
   10ARG    HB3 9069   4.771   5.460   7.766
   10ARG     CG 9070   4.635   5.525   7.613
   10ARG    HG2 9071   4.541   5.526   7.668
   10ARG    HG3 9072   4.632   5.606   7.542
   10ARG     CD 9073   4.636   5.396   7.534
   10ARG    HD2 9074   4.736   5.390   7.491
   10ARG    HD3 9075   4.644   5.310   7.601
   10ARG     NE 9076   4.518   5.397   7.438
   10ARG     HE 9077   4.426   5.414   7.474
   10ARG     CZ 9078   4.522   5.390   7.312
   10ARG    NH1 9079   4.635   5.387   7.242
   10ARG   HH11 9080   4.724   5.390   7.290
   10ARG   HH12 9081   4.626   5.366   7.144
   10ARG    NH2 9082   4.414   5.384   7.239
   10ARG   HH21 9083   4.345   5.450   7.272
   10ARG   HH22 9084   4.436   5.383   7.141
   10ARG      C 9085   4.893   5.710   7.841
   10ARG      O 9086   4.955   5.806   7.799
   11ARG      N 9087   4.942   5.634   7.940
   11ARG      H 9088   4.890   5.547   7.952
   11ARG     CA 9089   5.070   5.647   8.012
   11ARG     HA 9090   5.155   5.674   7.949
   11ARG     CB 9091   5.066   5.749   8.131
   11ARG    HB2 9092   4.974   5.748   8.189
   11ARG    HB3 9093   5.145   5.741   8.206
   11ARG     CG 9094   5.069   5.893   8.081
   11ARG    HG2 9095   5.166   5.915   8.037
   11ARG    HG3 9096   4.993   5.917   8.007
   11ARG     CD 9097   5.044   5.986   8.199
   11ARG    HD2 9098   5.031   6.086   8.158
   11ARG    HD3 9099   4.948   5.966   8.246
   11ARG     NE 9100   5.157   5.980   8.298
   11ARG     HE 9101   5.140   5.902   8.361
   11ARG     CZ 9102   5.281   6.022   8.275
   11ARG    NH1 9103   5.302   6.108   8.179
   11ARG   HH11 9104   5.219   6.137   8.129
   11ARG   HH12 9105   5.395   6.146   8.169
   11ARG    NH2 9106   5.379   5.986   8.347
   11ARG   HH21 9107   5.369   5.928   8.429
   11ARG   HH22 9108   5.470   6.004   8.306
   11ARG      C 9109   5.099   5.514   8.077
   11ARG      O 9110   5.015   5.429   8.096
   12LYS      N 9111   5.229   5.496   8.106
   12LYS      H 9112   5.284   5.581   8.104
   12LYS     CA 9113   5.287   5.380   8.176
   12LYS     HA 9114   5.209   5.331   8.232
   12LYS     CB 9115   5.347   5.279   8.073
   12LYS    HB2 9116   5.428   5.336   8.029
   12LYS    HB3 9117   5.390   5.197   8.130
   12LYS     CG 9118   5.254   5.223   7.963
   12LYS    HG2 9119   5.163   5.188   8.013
   12LYS    HG3 9120   5.210   5.301   7.902
   12LYS     CD 9121   5.316   5.116   7.870
   12LYS    HD2 9122   5.358   5.051   7.947
   12LYS    HD3 9123   5.240   5.066   7.810
   12LYS     CE 9124   5.439   5.164   7.794
   12LYS    HE2 9125   5.418   5.241   7.721
   12LYS    HE3 9126   5.512   5.211   7.858
   12LYS     NZ 9127   5.505   5.041   7.744
   12LYS    HZ1 9128   5.457   5.007   7.662
   12LYS    HZ2 9129   5.596   5.068   7.708
   12LYS    HZ3 9130   5.524   4.975   7.817
   12LYS      C 9131   5.397   5.417   8.283
   12LYS      O 9132   5.458   5.521   8.271
   13NHE      N 9133   5.428   5.326   8.370
   13NHE    HN1 9134   5.368   5.244   8.371
   13NHE    HN2 9135   5.502   5.346   8.434
    1ILE      N 9136   0.976   5.479   3.578
    1ILE     H1 9137   0.933   5.494   3.669
    1ILE     H2 9138   0.914   5.430   3.515
    1ILE     H3 9139   0.995   5.564   3.528
    1ILE     CA 9140   1.099   5.398   3.598
    1ILE     HA 9141   1.136   5.370   3.499
    1ILE     CB 9142   1.217   5.472   3.661
    1ILE     HB 9143   1.295   5.396   3.666
    1ILE    CG2 9144   1.259   5.576   3.557
    1ILE   HG21 9145   1.199   5.667   3.544
    1ILE   HG22 9146   1.354   5.622   3.583
    1ILE   HG23 9147   1.284   5.527   3.463
    1ILE    CG1 9148   1.180   5.536   3.794
    1ILE   HG12 9149   1.118   5.469   3.853
    1ILE   HG13 9150   1.134   5.636   3.783
    1ILE    CD1 9151   1.312   5.541   3.871
    1ILE   HD11 9152   1.299   5.573   3.975
    1ILE   HD12 9153   1.353   5.440   3.869
    1ILE   HD13 9154   1.382   5.611   3.829
    1ILE      C 9155   1.065   5.266   3.663
    1ILE      O 9156   0.972   5.266   3.748
    2LEU      N 9157   1.143   5.162   3.631
    2LEU      H 9158   1.221   5.184   3.572
    2LEU     CA 9159   1.126   5.028   3.689
    2LEU     HA 9160   1.019   5.008   3.693
    2LEU     CB 9161   1.198   4.922   3.601
    2LEU    HB2 9162   1.304   4.945   3.596
    2LEU    HB3 9163   1.185   4.820   3.638
    2LEU     CG 9164   1.161   4.922   3.454
    2LEU     HG 9165   1.175   5.012   3.395
    2LEU    CD1 9166   1.233   4.808   3.383
    2LEU   HD11 9167   1.230   4.711   3.433
    2LEU   HD12 9168   1.187   4.804   3.283
    2LEU   HD13 9169   1.336   4.828   3.355
    2LEU    CD2 9170   1.009   4.899   3.450
    2LEU   HD21 9171   0.962   4.993   3.478
    2LEU   HD22 9172   0.985   4.870   3.347
    2LEU   HD23 9173   0.979   4.814   3.512
    2LEU      C 9174   1.181   5.029   3.835
    2LEU      O 9175   1.275   5.099   3.866
    3ARG      N 9176   1.123   4.953   3.930
    3ARG      H 9177   1.037   4.905   3.905
    3ARG     CA 9178   1.172   4.939   4.068
    3ARG     HA 9179   1.223   5.033   4.084
    3ARG     CB 9180   1.048   4.938   4.157
    3ARG    HB2 9181   0.992   4.847   4.138
    3ARG    HB3 9182   1.079   4.942   4.261
    3ARG     CG 9183   0.952   5.059   4.148
    3ARG    HG2 9184   0.900   5.056   4.052
    3ARG    HG3 9185   0.869   5.041   4.217
    3ARG     CD 9186   1.013   5.198   4.173
    3ARG    HD2 9187   1.043   5.210   4.277
    3ARG    HD3 9188   1.107   5.222   4.124
    3ARG     NE 9189   0.915   5.314   4.153
    3ARG     HE 9190   0.817   5.291   4.152
    3ARG     CZ 9191   0.949   5.442   4.145
    3ARG    NH1 9192   1.072   5.480   4.136
    3ARG   HH11 9193   1.142   5.417   4.171
    3ARG   HH12 9194   1.083   5.580   4.124
    3ARG    NH2 9195   0.852   5.528   4.148
    3ARG   HH21 9196   0.756   5.499   4.143
    3ARG   HH22 9197   0.878   5.617   4.108
    3ARG      C 9198   1.285   4.837   4.090
    3ARG      O 9199   1.332   4.823   4.204
    4TRP      N 9200   1.339   4.782   3.980
    4TRP      H 9201   1.312   4.824   3.893
    4TRP     CA 9202   1.468   4.707   3.984
    4TRP     HA 9203   1.507   4.712   4.087
    4TRP     CB 9204   1.435   4.560   3.952
    4TRP    HB2 9205   1.524   4.505   3.922
    4TRP    HB3 9206   1.404   4.510   4.044
    4TRP     CG 9207   1.332   4.539   3.829
    4TRP    CD1 9208   1.373   4.560   3.700
    4TRP    HD1 9209   1.463   4.611   3.667
    4TRP    NE1 9210   1.273   4.520   3.616
    4TRP    HE1 9211   1.276   4.505   3.516
    4TRP    CE2 9212   1.157   4.479   3.685
    4TRP    CZ2 9213   1.027   4.440   3.655
    4TRP    HZ2 9214   0.993   4.436   3.553
    4TRP    CH2 9215   0.932   4.405   3.751
    4TRP    HH2 9216   0.834   4.367   3.725
    4TRP    CZ3 9217   0.967   4.418   3.889
    4TRP    HZ3 9218   0.899   4.404   3.972
    4TRP    CE3 9219   1.096   4.462   3.918
    4TRP    HE3 9220   1.134   4.462   4.019
    4TRP    CD2 9221   1.196   4.490   3.821
    4TRP      C 9222   1.580   4.777   3.895
    4TRP      O 9223   1.543   4.855   3.809
    5PRO      N 9224   1.712   4.751   3.920
    5PRO     CD 9225   1.770   4.672   4.022
    5PRO    HD2 9226   1.723   4.574   4.033
    5PRO    HD3 9227   1.762   4.722   4.118
    5PRO     CG 9228   1.919   4.656   3.988
    5PRO    HG2 9229   1.929   4.574   3.917
    5PRO    HG3 9230   1.984   4.645   4.075
    5PRO     CB 9231   1.950   4.785   3.897
    5PRO    HB2 9232   2.030   4.767   3.825
    5PRO    HB3 9233   1.966   4.869   3.965
    5PRO     CA 9234   1.811   4.811   3.826
    5PRO     HA 9235   1.791   4.918   3.828
    5PRO      C 9236   1.798   4.756   3.684
    5PRO      O 9237   1.799   4.634   3.660
    6TRP      N 9238   1.792   4.852   3.595
    6TRP      H 9239   1.799   4.948   3.627
    6TRP     CA 9240   1.769   4.833   3.448
    6TRP     HA 9241   1.724   4.734   3.439
    6TRP     CB 9242   1.656   4.918   3.390
    6TRP    HB2 9243   1.560   4.891   3.437
    6TRP    HB3 9244   1.678   5.023   3.405
    6TRP     CG 9245   1.651   4.896   3.241
    6TRP    CD1 9246   1.678   4.994   3.150
    6TRP    HD1 9247   1.715   5.094   3.173
    6TRP    NE1 9248   1.671   4.948   3.028
    6TRP    HE1 9249   1.672   5.001   2.943
    6TRP    CE2 9250   1.626   4.817   3.032
    6TRP    CZ2 9251   1.600   4.721   2.926
    6TRP    HZ2 9252   1.598   4.740   2.819
    6TRP    CH2 9253   1.563   4.590   2.957
    6TRP    HH2 9254   1.542   4.516   2.881
    6TRP    CZ3 9255   1.547   4.556   3.090
    6TRP    HZ3 9256   1.503   4.462   3.120
    6TRP    CE3 9257   1.583   4.643   3.190
    6TRP    HE3 9258   1.550   4.613   3.288
    6TRP    CD2 9259   1.621   4.777   3.168
    6TRP      C 9260   1.896   4.849   3.363
    6TRP      O 9261   1.959   4.952   3.363
    7TRP      N 9262   1.937   4.743   3.290
    7TRP      H 9263   1.891   4.655   3.309
    7TRP     CA 9264   2.030   4.764   3.181
    7TRP     HA 9265   2.057   4.869   3.166
    7TRP     CB 9266   2.162   4.702   3.227
    7TRP    HB2 9267   2.193   4.733   3.326
    7TRP    HB3 9268   2.151   4.593   3.230
    7TRP     CG 9269   2.273   4.727   3.138
    7TRP    CD1 9270   2.362   4.640   3.096
    7TRP    HD1 9271   2.356   4.534   3.119
    7TRP    NE1 9272   2.452   4.703   3.015
    7TRP    HE1 9273   2.527   4.658   2.965
    7TRP    CE2 9274   2.439   4.843   3.014
    7TRP    CZ2 9275   2.517   4.948   2.956
    7TRP    HZ2 9276   2.605   4.924   2.897
    7TRP    CH2 9277   2.482   5.081   2.990
    7TRP    HH2 9278   2.552   5.159   2.965
    7TRP    CZ3 9279   2.382   5.101   3.090
    7TRP    HZ3 9280   2.370   5.200   3.132
    7TRP    CE3 9281   2.301   4.995   3.135
    7TRP    HE3 9282   2.228   5.014   3.213
    7TRP    CD2 9283   2.328   4.861   3.101
    7TRP      C 9284   1.971   4.707   3.053
    7TRP      O 9285   1.928   4.595   3.052
    8PRO      N 9286   1.983   4.779   2.939
    8PRO     CD 9287   2.001   4.925   2.923
    8PRO    HD2 9288   2.107   4.943   2.908
    8PRO    HD3 9289   1.960   4.975   3.012
    8PRO     CG 9290   1.937   4.960   2.789
    8PRO    HG2 9291   1.984   5.056   2.765
    8PRO    HG3 9292   1.828   4.968   2.798
    8PRO     CB 9293   1.968   4.838   2.704
    8PRO    HB2 9294   2.070   4.840   2.670
    8PRO    HB3 9295   1.893   4.835   2.626
    8PRO     CA 9296   1.948   4.728   2.808
    8PRO     HA 9297   1.844   4.697   2.812
    8PRO      C 9298   2.028   4.602   2.758
    8PRO      O 9299   2.007   4.552   2.647
    9TRP      N 9300   2.105   4.536   2.844
    9TRP      H 9301   2.114   4.573   2.937
    9TRP     CA 9302   2.175   4.408   2.824
    9TRP     HA 9303   2.135   4.344   2.745
    9TRP     CB 9304   2.315   4.446   2.770
    9TRP    HB2 9305   2.311   4.504   2.678
    9TRP    HB3 9306   2.365   4.505   2.847
    9TRP     CG 9307   2.409   4.335   2.738
    9TRP    CD1 9308   2.527   4.306   2.799
    9TRP    HD1 9309   2.574   4.368   2.874
    9TRP    NE1 9310   2.592   4.202   2.732
    9TRP    HE1 9311   2.690   4.179   2.741
    9TRP    CE2 9312   2.506   4.146   2.636
    9TRP    CZ2 9313   2.515   4.032   2.554
    9TRP    HZ2 9314   2.604   3.970   2.553
    9TRP    CH2 9315   2.407   4.000   2.477
    9TRP    HH2 9316   2.418   3.913   2.413
    9TRP    CZ3 9317   2.301   4.085   2.466
    9TRP    HZ3 9318   2.216   4.048   2.412
    9TRP    CE3 9319   2.289   4.199   2.542
    9TRP    HE3 9320   2.199   4.257   2.532
    9TRP    CD2 9321   2.393   4.231   2.634
    9TRP      C 9322   2.173   4.323   2.950
    9TRP      O 9323   2.167   4.377   3.053
   10ARG      N 9324   2.204   4.195   2.932
   10ARG      H 9325   2.255   4.177   2.847
   10ARG     CA 9326   2.226   4.096   3.040
   10ARG     HA 9327   2.144   4.102   3.110
   10ARG     CB 9328   2.237   3.948   2.994
   10ARG    HB2 9329   2.339   3.921   2.962
   10ARG    HB3 9330   2.206   3.887   3.079
   10ARG     CG 9331   2.152   3.914   2.873
   10ARG    HG2 9332   2.047   3.942   2.883
   10ARG    HG3 9333   2.192   3.968   2.789
   10ARG     CD 9334   2.154   3.767   2.836
   10ARG    HD2 9335   2.258   3.738   2.841
   10ARG    HD3 9336   2.118   3.706   2.920
   10ARG     NE 9337   2.080   3.749   2.704
   10ARG     HE 9338   1.988   3.786   2.694
   10ARG     CZ 9339   2.128   3.702   2.596
   10ARG    NH1 9340   2.255   3.667   2.582
   10ARG   HH11 9341   2.319   3.675   2.659
   10ARG   HH12 9342   2.278   3.617   2.497
   10ARG    NH2 9343   2.055   3.685   2.490
   10ARG   HH21 9344   1.995   3.764   2.475
   10ARG   HH22 9345   2.110   3.651   2.413
   10ARG      C 9346   2.344   4.134   3.132
   10ARG      O 9347   2.436   4.205   3.096
   11ARG      N 9348   2.336   4.089   3.258
   11ARG      H 9349   2.266   4.016   3.269
   11ARG     CA 9350   2.429   4.111   3.370
   11ARG     HA 9351   2.535   4.108   3.343
   11ARG     CB 9352   2.405   4.245   3.448
   11ARG    HB2 9353   2.300   4.273   3.461
   11ARG    HB3 9354   2.448   4.254   3.548
   11ARG     CG 9355   2.457   4.366   3.369
   11ARG    HG2 9356   2.565   4.362   3.365
   11ARG    HG3 9357   2.419   4.372   3.267
   11ARG     CD 9358   2.412   4.493   3.439
   11ARG    HD2 9359   2.435   4.576   3.372
   11ARG    HD3 9360   2.303   4.498   3.446
   11ARG     NE 9361   2.477   4.507   3.574
   11ARG     HE 9362   2.422   4.455   3.641
   11ARG     CZ 9363   2.607   4.527   3.594
   11ARG    NH1 9364   2.679   4.576   3.496
   11ARG   HH11 9365   2.628   4.596   3.411
   11ARG   HH12 9366   2.775   4.599   3.516
   11ARG    NH2 9367   2.662   4.506   3.705
   11ARG   HH21 9368   2.611   4.478   3.788
   11ARG   HH22 9369   2.763   4.501   3.702
   11ARG      C 9370   2.403   4.003   3.473
   11ARG      O 9371   2.302   3.937   3.477
   12LYS      N 9372   2.507   3.983   3.555
   12LYS      H 9373   2.576   4.057   3.555
   12LYS     CA 9374   2.510   3.890   3.669
   12LYS     HA 9375   2.408   3.868   3.700
   12LYS     CB 9376   2.579   3.756   3.628
   12LYS    HB2 9377   2.681   3.788   3.609
   12LYS    HB3 9378   2.580   3.692   3.717
   12LYS     CG 9379   2.522   3.677   3.508
   12LYS    HG2 9380   2.415   3.670   3.524
   12LYS    HG3 9381   2.521   3.736   3.417
   12LYS     CD 9382   2.589   3.541   3.478
   12LYS    HD2 9383   2.586   3.500   3.579
   12LYS    HD3 9384   2.531   3.482   3.408
   12LYS     CE 9385   2.738   3.550   3.450
   12LYS    HE2 9386   2.763   3.602   3.358
   12LYS    HE3 9387   2.792   3.607   3.524
   12LYS     NZ 9388   2.790   3.412   3.464
   12LYS    HZ1 9389   2.769   3.359   3.380
   12LYS    HZ2 9390   2.891   3.417   3.463
   12LYS    HZ3 9391   2.766   3.370   3.552
   12LYS      C 9392   2.579   3.947   3.799
   12LYS      O 9393   2.661   4.036   3.787
   13NHE      N 9394   2.556   3.886   3.911
   13NHE    HN1 9395   2.483   3.815   3.908
   13NHE    HN2 9396   2.604   3.917   3.993
    1ILE      N 9397   6.213   5.066   6.589
    1ILE     H1 9398   6.214   5.126   6.507
    1ILE     H2 9399   6.303   5.026   6.608
    1ILE     H3 9400   6.194   5.116   6.675
    1ILE     CA 9401   6.115   4.957   6.566
    1ILE     HA 9402   6.125   4.886   6.648
    1ILE     CB 9403   5.968   4.999   6.572
    1ILE     HB 9404   5.915   4.905   6.553
    1ILE    CG2 9405   5.943   5.038   6.717
    1ILE   HG21 9406   5.979   5.134   6.754
    1ILE   HG22 9407   5.837   5.051   6.738
    1ILE   HG23 9408   5.968   4.955   6.783
    1ILE    CG1 9409   5.937   5.112   6.475
    1ILE   HG12 9410   5.986   5.097   6.380
    1ILE   HG13 9411   5.957   5.211   6.518
    1ILE    CD1 9412   5.789   5.093   6.441
    1ILE   HD11 9413   5.755   5.160   6.362
    1ILE   HD12 9414   5.777   4.989   6.409
    1ILE   HD13 9415   5.724   5.113   6.525
    1ILE      C 9416   6.154   4.877   6.444
    1ILE      O 9417   6.206   4.940   6.348
    2LEU      N 9418   6.121   4.747   6.445
    2LEU      H 9419   6.067   4.718   6.524
    2LEU     CA 9420   6.147   4.657   6.332
    2LEU     HA 9421   6.247   4.681   6.294
    2LEU     CB 9422   6.141   4.509   6.378
    2LEU    HB2 9423   6.042   4.488   6.418
    2LEU    HB3 9424   6.164   4.438   6.299
    2LEU     CG 9425   6.228   4.474   6.498
    2LEU     HG 9426   6.216   4.527   6.591
    2LEU    CD1 9427   6.218   4.324   6.526
    2LEU   HD11 9428   6.225   4.259   6.440
    2LEU   HD12 9429   6.297   4.305   6.600
    2LEU   HD13 9430   6.130   4.294   6.584
    2LEU    CD2 9431   6.372   4.509   6.455
    2LEU   HD21 9432   6.381   4.618   6.460
    2LEU   HD22 9433   6.438   4.459   6.526
    2LEU   HD23 9434   6.396   4.467   6.357
    2LEU      C 9435   6.044   4.686   6.218
    2LEU      O 9436   5.931   4.723   6.245
    3ARG      N 9437   6.080   4.674   6.089
    3ARG      H 9438   6.178   4.656   6.070
    3ARG     CA 9439   5.989   4.689   5.974
    3ARG     HA 9440   5.914   4.757   6.014
    3ARG     CB 9441   6.068   4.765   5.868
    3ARG    HB2 9442   6.147   4.700   5.831
    3ARG    HB3 9443   6.000   4.792   5.787
    3ARG     CG 9444   6.127   4.902   5.906
    3ARG    HG2 9445   6.210   4.887   5.975
    3ARG    HG3 9446   6.180   4.940   5.818
    3ARG     CD 9447   6.030   5.008   5.959
    3ARG    HD2 9448   5.961   5.042   5.881
    3ARG    HD3 9449   5.957   4.978   6.034
    3ARG     NE 9450   6.097   5.139   6.004
    3ARG     HE 9451   6.190   5.155   5.971
    3ARG     CZ 9452   6.038   5.233   6.075
    3ARG    NH1 9453   5.921   5.218   6.128
    3ARG   HH11 9454   5.861   5.149   6.087
    3ARG   HH12 9455   5.891   5.297   6.185
    3ARG    NH2 9456   6.102   5.345   6.087
    3ARG   HH21 9457   6.198   5.354   6.056
    3ARG   HH22 9458   6.072   5.400   6.166
    3ARG      C 9459   5.904   4.566   5.938
    3ARG      O 9460   5.823   4.575   5.844
    4TRP      N 9461   5.909   4.462   6.022
    4TRP      H 9462   5.955   4.479   6.110
    4TRP     CA 9463   5.810   4.351   6.016
    4TRP     HA 9464   5.736   4.375   5.939
    4TRP     CB 9465   5.888   4.224   5.973
    4TRP    HB2 9466   5.832   4.134   5.996
    4TRP    HB3 9467   5.893   4.224   5.864
    4TRP     CG 9468   6.030   4.204   6.045
    4TRP    CD1 9469   6.036   4.164   6.177
    4TRP    HD1 9470   5.955   4.163   6.249
    4TRP    NE1 9471   6.166   4.138   6.208
    4TRP    HE1 9472   6.204   4.090   6.289
    4TRP    CE2 9473   6.255   4.169   6.103
    4TRP    CZ2 9474   6.392   4.173   6.081
    4TRP    HZ2 9475   6.461   4.148   6.160
    4TRP    CH2 9476   6.451   4.210   5.960
    4TRP    HH2 9477   6.557   4.206   5.942
    4TRP    CZ3 9478   6.365   4.254   5.854
    4TRP    HZ3 9479   6.399   4.296   5.759
    4TRP    CE3 9480   6.228   4.255   5.878
    4TRP    HE3 9481   6.157   4.274   5.800
    4TRP    CD2 9482   6.168   4.209   5.998
    4TRP      C 9483   5.726   4.340   6.151
    4TRP      O 9484   5.771   4.392   6.251
    5PRO      N 9485   5.604   4.276   6.150
    5PRO     CD 9486   5.534   4.220   6.040
    5PRO    HD2 9487   5.596   4.156   5.977
    5PRO    HD3 9488   5.493   4.298   5.976
    5PRO     CG 9489   5.417   4.140   6.098
    5PRO    HG2 9490   5.454   4.041   6.125
    5PRO    HG3 9491   5.329   4.136   6.033
    5PRO     CB 9492   5.391   4.210   6.241
    5PRO    HB2 9493   5.350   4.140   6.314
    5PRO    HB3 9494   5.331   4.299   6.222
    5PRO     CA 9495   5.535   4.260   6.281
    5PRO     HA 9496   5.526   4.360   6.320
    5PRO      C 9497   5.613   4.170   6.376
    5PRO      O 9498   5.650   4.056   6.344
    6TRP      N 9499   5.627   4.226   6.494
    6TRP      H 9500   5.586   4.316   6.510
    6TRP     CA 9501   5.707   4.168   6.608
    6TRP     HA 9502   5.774   4.097   6.562
    6TRP     CB 9503   5.809   4.265   6.669
    6TRP    HB2 9504   5.884   4.293   6.594
    6TRP    HB3 9505   5.758   4.353   6.706
    6TRP     CG 9506   5.873   4.198   6.787
    6TRP    CD1 9507   5.859   4.242   6.916
    6TRP    HD1 9508   5.793   4.322   6.948
    6TRP    NE1 9509   5.921   4.164   6.999
    6TRP    HE1 9510   5.938   4.181   7.097
    6TRP    CE2 9511   5.992   4.069   6.928
    6TRP    CZ2 9512   6.077   3.960   6.972
    6TRP    HZ2 9513   6.114   3.941   7.073
    6TRP    CH2 9514   6.131   3.871   6.879
    6TRP    HH2 9515   6.196   3.789   6.908
    6TRP    CZ3 9516   6.105   3.891   6.745
    6TRP    HZ3 9517   6.156   3.836   6.668
    6TRP    CE3 9518   6.015   3.986   6.705
    6TRP    HE3 9519   6.015   4.006   6.599
    6TRP    CD2 9520   5.956   4.081   6.792
    6TRP      C 9521   5.620   4.106   6.719
    6TRP      O 9522   5.539   4.173   6.779
    7TRP      N 9523   5.636   3.975   6.746
    7TRP      H 9524   5.691   3.923   6.679
    7TRP     CA 9525   5.587   3.923   6.872
    7TRP     HA 9526   5.543   3.998   6.937
    7TRP     CB 9527   5.468   3.835   6.836
    7TRP    HB2 9528   5.395   3.883   6.771
    7TRP    HB3 9529   5.503   3.746   6.783
    7TRP     CG 9530   5.394   3.785   6.950
    7TRP    CD1 9531   5.351   3.663   6.970
    7TRP    HD1 9532   5.373   3.581   6.902
    7TRP    NE1 9533   5.284   3.657   7.089
    7TRP    HE1 9534   5.246   3.574   7.131
    7TRP    CE2 9535   5.262   3.783   7.148
    7TRP    CZ2 9536   5.188   3.825   7.263
    7TRP    HZ2 9537   5.137   3.752   7.324
    7TRP    CH2 9538   5.175   3.965   7.283
    7TRP    HH2 9539   5.102   3.998   7.355
    7TRP    CZ3 9540   5.223   4.052   7.181
    7TRP    HZ3 9541   5.194   4.157   7.185
    7TRP    CE3 9542   5.305   4.006   7.076
    7TRP    HE3 9543   5.337   4.076   7.000
    7TRP    CD2 9544   5.325   3.868   7.054
    7TRP      C 9545   5.701   3.853   6.943
    7TRP      O 9546   5.768   3.771   6.885
    8PRO      N 9547   5.715   3.872   7.077
    8PRO     CD 9548   5.669   3.986   7.159
    8PRO    HD2 9549   5.575   3.957   7.205
    8PRO    HD3 9550   5.662   4.074   7.094
    8PRO     CG 9551   5.767   3.996   7.275
    8PRO    HG2 9552   5.711   4.053   7.349
    8PRO    HG3 9553   5.859   4.046   7.245
    8PRO     CB 9554   5.800   3.850   7.303
    8PRO    HB2 9555   5.721   3.802   7.358
    8PRO    HB3 9556   5.897   3.849   7.352
    8PRO     CA 9557   5.807   3.797   7.161
    8PRO     HA 9558   5.907   3.810   7.118
    8PRO      C 9559   5.784   3.641   7.167
    8PRO      O 9560   5.856   3.569   7.237
    9TRP      N 9561   5.700   3.584   7.082
    9TRP      H 9562   5.648   3.644   7.019
    9TRP     CA 9563   5.676   3.441   7.061
    9TRP     HA 9564   5.755   3.373   7.091
    9TRP     CB 9565   5.560   3.404   7.156
    9TRP    HB2 9566   5.583   3.424   7.261
    9TRP    HB3 9567   5.473   3.462   7.127
    9TRP     CG 9568   5.515   3.261   7.158
    9TRP    CD1 9569   5.394   3.213   7.120
    9TRP    HD1 9570   5.308   3.274   7.094
    9TRP    NE1 9571   5.385   3.077   7.149
    9TRP    HE1 9572   5.300   3.023   7.155
    9TRP    CE2 9573   5.511   3.027   7.187
    9TRP    CZ2 9574   5.560   2.898   7.210
    9TRP    HZ2 9575   5.497   2.812   7.205
    9TRP    CH2 9576   5.694   2.885   7.238
    9TRP    HH2 9577   5.729   2.784   7.258
    9TRP    CZ3 9578   5.773   2.994   7.259
    9TRP    HZ3 9579   5.878   2.976   7.270
    9TRP    CE3 9580   5.727   3.123   7.241
    9TRP    HE3 9581   5.797   3.204   7.253
    9TRP    CD2 9582   5.592   3.143   7.199
    9TRP      C 9583   5.651   3.409   6.914
    9TRP      O 9584   5.606   3.493   6.846
   10ARG      N 9585   5.662   3.282   6.880
   10ARG      H 9586   5.651   3.219   6.958
   10ARG     CA 9587   5.626   3.224   6.749
   10ARG     HA 9588   5.672   3.283   6.671
   10ARG     CB 9589   5.669   3.076   6.726
   10ARG    HB2 9590   5.596   3.004   6.766
   10ARG    HB3 9591   5.680   3.063   6.619
   10ARG     CG 9592   5.799   3.038   6.796
   10ARG    HG2 9593   5.882   3.104   6.775
   10ARG    HG3 9594   5.780   3.042   6.902
   10ARG     CD 9595   5.846   2.898   6.765
   10ARG    HD2 9596   5.758   2.835   6.772
   10ARG    HD3 9597   5.862   2.886   6.657
   10ARG     NE 9598   5.965   2.865   6.854
   10ARG     HE 9599   6.043   2.928   6.857
   10ARG     CZ 9600   5.973   2.771   6.939
   10ARG    NH1 9601   5.873   2.688   6.965
   10ARG   HH11 9602   5.785   2.697   6.917
   10ARG   HH12 9603   5.896   2.608   7.022
   10ARG    NH2 9604   6.082   2.748   7.006
   10ARG   HH21 9605   6.122   2.833   7.039
   10ARG   HH22 9606   6.069   2.672   7.070
   10ARG      C 9607   5.477   3.244   6.713
   10ARG      O 9608   5.390   3.259   6.797
   11ARG      N 9609   5.449   3.249   6.582
   11ARG      H 9610   5.525   3.216   6.525
   11ARG     CA 9611   5.319   3.272   6.517
   11ARG     HA 9612   5.235   3.221   6.564
   11ARG     CB 9613   5.279   3.423   6.502
   11ARG    HB2 9614   5.362   3.490   6.477
   11ARG    HB3 9615   5.202   3.448   6.430
   11ARG     CG 9616   5.233   3.481   6.636
   11ARG    HG2 9617   5.137   3.437   6.664
   11ARG    HG3 9618   5.302   3.467   6.718
   11ARG     CD 9619   5.216   3.632   6.620
   11ARG    HD2 9620   5.199   3.672   6.719
   11ARG    HD3 9621   5.310   3.679   6.590
   11ARG     NE 9622   5.104   3.665   6.524
   11ARG     HE 9623   5.142   3.662   6.430
   11ARG     CZ 9624   4.976   3.640   6.547
   11ARG    NH1 9625   4.935   3.623   6.670
   11ARG   HH11 9626   5.007   3.631   6.740
   11ARG   HH12 9627   4.836   3.615   6.686
   11ARG    NH2 9628   4.890   3.639   6.454
   11ARG   HH21 9629   4.912   3.661   6.358
   11ARG   HH22 9630   4.802   3.596   6.478
   11ARG      C 9631   5.330   3.222   6.374
   11ARG      O 9632   5.436   3.204   6.318
   12LYS      N 9633   5.212   3.193   6.319
   12LYS      H 9634   5.132   3.232   6.367
   12LYS     CA 9635   5.190   3.150   6.180
   12LYS     HA 9636   5.276   3.180   6.120
   12LYS     CB 9637   5.176   2.995   6.173
   12LYS    HB2 9638   5.083   2.978   6.228
   12LYS    HB3 9639   5.158   2.969   6.069
   12LYS     CG 9640   5.290   2.908   6.229
   12LYS    HG2 9641   5.383   2.946   6.187
   12LYS    HG3 9642   5.310   2.929   6.334
   12LYS     CD 9643   5.274   2.755   6.212
   12LYS    HD2 9644   5.250   2.754   6.105
   12LYS    HD3 9645   5.367   2.702   6.234
   12LYS     CE 9646   5.149   2.697   6.276
   12LYS    HE2 9647   5.148   2.703   6.384
   12LYS    HE3 9648   5.059   2.752   6.249
   12LYS     NZ 9649   5.130   2.563   6.216
   12LYS    HZ1 9650   5.193   2.497   6.260
   12LYS    HZ2 9651   5.039   2.529   6.242
   12LYS    HZ3 9652   5.129   2.566   6.115
   12LYS      C 9653   5.067   3.218   6.109
   12LYS      O 9654   4.976   3.260   6.177
   13NHE      N 9655   5.061   3.210   5.979
   13NHE    HN1 9656   5.145   3.174   5.934
   13NHE    HN2 9657   4.980   3.246   5.934
    1ILE      N 9658   2.221   5.709   8.639
    1ILE     H1 9659   2.155   5.634   8.626
    1ILE     H2 9660   2.230   5.736   8.735
    1ILE     H3 9661   2.316   5.685   8.614
    1ILE     CA 9662   2.173   5.827   8.560
    1ILE     HA 9663   2.236   5.912   8.586
    1ILE     CB 9664   2.188   5.815   8.409
    1ILE     HB 9665   2.148   5.910   8.372
    1ILE    CG2 9666   2.339   5.815   8.384
    1ILE   HG21 9667   2.397   5.725   8.403
    1ILE   HG22 9668   2.361   5.827   8.278
    1ILE   HG23 9669   2.384   5.906   8.425
    1ILE    CG1 9670   2.120   5.690   8.354
    1ILE   HG12 9671   2.024   5.674   8.401
    1ILE   HG13 9672   2.185   5.601   8.358
    1ILE    CD1 9673   2.083   5.728   8.211
    1ILE   HD11 9674   2.021   5.652   8.162
    1ILE   HD12 9675   2.027   5.822   8.216
    1ILE   HD13 9676   2.169   5.739   8.146
    1ILE      C 9677   2.036   5.868   8.608
    1ILE      O 9678   1.957   5.776   8.644
    2LEU      N 9679   2.007   5.999   8.598
    2LEU      H 9680   2.077   6.055   8.554
    2LEU     CA 9681   1.875   6.054   8.636
    2LEU     HA 9682   1.845   6.004   8.728
    2LEU     CB 9683   1.887   6.208   8.658
    2LEU    HB2 9684   1.921   6.255   8.566
    2LEU    HB3 9685   1.793   6.253   8.690
    2LEU     CG 9686   1.995   6.253   8.755
    2LEU     HG 9687   2.098   6.226   8.738
    2LEU    CD1 9688   1.988   6.404   8.773
    2LEU   HD11 9689   1.888   6.446   8.788
    2LEU   HD12 9690   2.056   6.425   8.857
    2LEU   HD13 9691   2.037   6.462   8.694
    2LEU    CD2 9692   1.961   6.183   8.888
    2LEU   HD21 9693   1.992   6.079   8.878
    2LEU   HD22 9694   2.019   6.235   8.965
    2LEU   HD23 9695   1.856   6.196   8.915
    2LEU      C 9696   1.772   6.020   8.524
    2LEU      O 9697   1.806   6.011   8.408
    3ARG      N 9698   1.643   5.995   8.557
    3ARG      H 9699   1.620   5.990   8.655
    3ARG     CA 9700   1.535   5.971   8.460
    3ARG     HA 9701   1.589   5.929   8.375
    3ARG     CB 9702   1.449   5.860   8.519
    3ARG    HB2 9703   1.399   5.899   8.607
    3ARG    HB3 9704   1.376   5.828   8.445
    3ARG     CG 9705   1.518   5.727   8.555
    3ARG    HG2 9706   1.582   5.741   8.642
    3ARG    HG3 9707   1.442   5.660   8.597
    3ARG     CD 9708   1.595   5.655   8.442
    3ARG    HD2 9709   1.526   5.617   8.365
    3ARG    HD3 9710   1.660   5.715   8.380
    3ARG     NE 9711   1.668   5.528   8.487
    3ARG     HE 9712   1.640   5.488   8.575
    3ARG     CZ 9713   1.759   5.465   8.415
    3ARG    NH1 9714   1.807   5.513   8.305
    3ARG   HH11 9715   1.751   5.581   8.257
    3ARG   HH12 9716   1.881   5.456   8.264
    3ARG    NH2 9717   1.797   5.348   8.459
    3ARG   HH21 9718   1.769   5.315   8.551
    3ARG   HH22 9719   1.887   5.320   8.423
    3ARG      C 9720   1.471   6.096   8.396
    3ARG      O 9721   1.382   6.081   8.312
    4TRP      N 9722   1.529   6.214   8.424
    4TRP      H 9723   1.618   6.209   8.470
    4TRP     CA 9724   1.497   6.337   8.346
    4TRP     HA 9725   1.428   6.309   8.266
    4TRP     CB 9726   1.426   6.434   8.443
    4TRP    HB2 9727   1.427   6.535   8.405
    4TRP    HB3 9728   1.319   6.409   8.444
    4TRP     CG 9729   1.492   6.444   8.590
    4TRP    CD1 9730   1.610   6.511   8.608
    4TRP    HD1 9731   1.680   6.543   8.531
    4TRP    NE1 9732   1.635   6.519   8.742
    4TRP    HE1 9733   1.703   6.576   8.791
    4TRP    CE2 9734   1.540   6.449   8.819
    4TRP    CZ2 9735   1.520   6.415   8.952
    4TRP    HZ2 9736   1.591   6.444   9.028
    4TRP    CH2 9737   1.411   6.341   8.999
    4TRP    HH2 9738   1.393   6.322   9.104
    4TRP    CZ3 9739   1.318   6.291   8.903
    4TRP    HZ3 9740   1.236   6.223   8.924
    4TRP    CE3 9741   1.341   6.321   8.768
    4TRP    HE3 9742   1.269   6.297   8.691
    4TRP    CD2 9743   1.448   6.403   8.722
    4TRP      C 9744   1.626   6.393   8.270
    4TRP      O 9745   1.735   6.358   8.310
    5PRO      N 9746   1.609   6.476   8.162
    5PRO     CD 9747   1.490   6.518   8.098
    5PRO    HD2 9748   1.413   6.553   8.168
    5PRO    HD3 9749   1.446   6.436   8.042
    5PRO     CG 9750   1.527   6.629   8.000
    5PRO    HG2 9751   1.531   6.723   8.055
    5PRO    HG3 9752   1.463   6.634   7.912
    5PRO     CB 9753   1.682   6.600   7.968
    5PRO    HB2 9754   1.738   6.690   7.943
    5PRO    HB3 9755   1.685   6.521   7.892
    5PRO     CA 9756   1.733   6.535   8.103
    5PRO     HA 9757   1.795   6.449   8.077
    5PRO      C 9758   1.805   6.628   8.199
    5PRO      O 9759   1.748   6.723   8.254
    6TRP      N 9760   1.933   6.599   8.208
    6TRP      H 9761   1.969   6.524   8.152
    6TRP     CA 9762   2.030   6.665   8.301
    6TRP     HA 9763   1.969   6.711   8.379
    6TRP     CB 9764   2.112   6.568   8.387
    6TRP    HB2 9765   2.046   6.511   8.453
    6TRP    HB3 9766   2.169   6.502   8.323
    6TRP     CG 9767   2.212   6.647   8.467
    6TRP    CD1 9768   2.347   6.637   8.450
    6TRP    HD1 9769   2.397   6.580   8.372
    6TRP    NE1 9770   2.411   6.719   8.529
    6TRP    HE1 9771   2.510   6.722   8.546
    6TRP    CE2 9772   2.319   6.781   8.613
    6TRP    CZ2 9773   2.337   6.880   8.718
    6TRP    HZ2 9774   2.431   6.914   8.762
    6TRP    CH2 9775   2.226   6.934   8.783
    6TRP    HH2 9776   2.235   7.006   8.862
    6TRP    CZ3 9777   2.100   6.889   8.748
    6TRP    HZ3 9778   2.012   6.914   8.805
    6TRP    CE3 9779   2.083   6.805   8.640
    6TRP    HE3 9780   1.985   6.762   8.633
    6TRP    CD2 9781   2.190   6.745   8.569
    6TRP      C 9782   2.124   6.766   8.232
    6TRP      O 9783   2.198   6.731   8.142
    7TRP      N 9784   2.120   6.895   8.272
    7TRP      H 9785   2.043   6.919   8.333
    7TRP     CA 9786   2.230   6.982   8.239
    7TRP     HA 9787   2.311   6.933   8.185
    7TRP     CB 9788   2.175   7.080   8.135
    7TRP    HB2 9789   2.122   7.032   8.052
    7TRP    HB3 9790   2.103   7.147   8.183
    7TRP     CG 9791   2.274   7.167   8.076
    7TRP    CD1 9792   2.265   7.296   8.057
    7TRP    HD1 9793   2.180   7.355   8.090
    7TRP    NE1 9794   2.380   7.341   7.997
    7TRP    HE1 9795   2.401   7.437   7.976
    7TRP    CE2 9796   2.466   7.238   7.955
    7TRP    CZ2 9797   2.587   7.238   7.880
    7TRP    HZ2 9798   2.630   7.331   7.845
    7TRP    CH2 9799   2.639   7.111   7.843
    7TRP    HH2 9800   2.717   7.109   7.768
    7TRP    CZ3 9801   2.561   6.995   7.870
    7TRP    HZ3 9802   2.588   6.901   7.823
    7TRP    CE3 9803   2.448   7.000   7.954
    7TRP    HE3 9804   2.390   6.911   7.970
    7TRP    CD2 9805   2.394   7.123   7.998
    7TRP      C 9806   2.284   7.045   8.366
    7TRP      O 9807   2.209   7.097   8.444
    8PRO      N 9808   2.418   7.054   8.381
    8PRO     CD 9809   2.524   6.972   8.319
    8PRO    HD2 9810   2.562   7.028   8.234
    8PRO    HD3 9811   2.481   6.874   8.294
    8PRO     CG 9812   2.640   6.971   8.419
    8PRO    HG2 9813   2.725   6.944   8.356
    8PRO    HG3 9814   2.622   6.899   8.499
    8PRO     CB 9815   2.633   7.111   8.479
    8PRO    HB2 9816   2.675   7.184   8.411
    8PRO    HB3 9817   2.680   7.105   8.576
    8PRO     CA 9818   2.482   7.128   8.489
    8PRO     HA 9819   2.444   7.088   8.583
    8PRO      C 9820   2.453   7.282   8.494
    8PRO      O 9821   2.504   7.354   8.581
    9TRP      N 9822   2.356   7.333   8.418
    9TRP      H 9823   2.309   7.271   8.354
    9TRP     CA 9824   2.302   7.470   8.419
    9TRP     HA 9825   2.317   7.527   8.511
    9TRP     CB 9826   2.387   7.548   8.316
    9TRP    HB2 9827   2.493   7.548   8.339
    9TRP    HB3 9828   2.372   7.502   8.219
    9TRP     CG 9829   2.355   7.693   8.297
    9TRP    CD1 9830   2.307   7.753   8.185
    9TRP    HD1 9831   2.296   7.704   8.089
    9TRP    NE1 9832   2.304   7.891   8.202
    9TRP    HE1 9833   2.297   7.959   8.128
    9TRP    CE2 9834   2.330   7.924   8.336
    9TRP    CZ2 9835   2.322   8.044   8.409
    9TRP    HZ2 9836   2.297   8.137   8.361
    9TRP    CH2 9837   2.346   8.039   8.543
    9TRP    HH2 9838   2.342   8.133   8.597
    9TRP    CZ3 9839   2.392   7.925   8.602
    9TRP    HZ3 9840   2.399   7.925   8.710
    9TRP    CE3 9841   2.404   7.805   8.534
    9TRP    HE3 9842   2.435   7.718   8.589
    9TRP    CD2 9843   2.368   7.801   8.396
    9TRP      C 9844   2.152   7.471   8.395
    9TRP      O 9845   2.105   7.383   8.332
   10ARG      N 9846   2.090   7.583   8.426
   10ARG      H 9847   2.151   7.663   8.430
   10ARG     CA 9848   1.949   7.616   8.396
   10ARG     HA 9849   1.887   7.532   8.428
   10ARG     CB 9850   1.893   7.744   8.464
   10ARG    HB2 9851   1.915   7.835   8.407
   10ARG    HB3 9852   1.785   7.729   8.473
   10ARG     CG 9853   1.952   7.772   8.601
   10ARG    HG2 9854   1.947   7.689   8.670
   10ARG    HG3 9855   2.056   7.796   8.586
   10ARG     CD 9856   1.889   7.891   8.671
   10ARG    HD2 9857   1.882   7.968   8.596
   10ARG    HD3 9858   1.782   7.874   8.685
   10ARG     NE 9859   1.969   7.920   8.798
   10ARG     HE 9860   1.986   7.846   8.863
   10ARG     CZ 9861   2.029   8.028   8.826
   10ARG    NH1 9862   2.036   8.132   8.744
   10ARG   HH11 9863   1.991   8.128   8.653
   10ARG   HH12 9864   2.073   8.217   8.782
   10ARG    NH2 9865   2.089   8.046   8.940
   10ARG   HH21 9866   2.142   7.964   8.965
   10ARG   HH22 9867   2.134   8.136   8.943
   10ARG      C 9868   1.919   7.615   8.245
   10ARG      O 9869   2.003   7.636   8.160
   11ARG      N 9870   1.792   7.585   8.211
   11ARG      H 9871   1.729   7.590   8.289
   11ARG     CA 9872   1.734   7.573   8.076
   11ARG     HA 9873   1.768   7.648   8.004
   11ARG     CB 9874   1.755   7.432   8.010
   11ARG    HB2 9875   1.746   7.347   8.078
   11ARG    HB3 9876   1.690   7.406   7.926
   11ARG     CG 9877   1.898   7.415   7.959
   11ARG    HG2 9878   1.915   7.482   7.874
   11ARG    HG3 9879   1.974   7.435   8.033
   11ARG     CD 9880   1.917   7.271   7.915
   11ARG    HD2 9881   2.023   7.258   7.895
   11ARG    HD3 9882   1.900   7.202   7.997
   11ARG     NE 9883   1.832   7.238   7.796
   11ARG     HE 9884   1.740   7.212   7.829
   11ARG     CZ 9885   1.848   7.290   7.674
   11ARG    NH1 9886   1.963   7.342   7.642
   11ARG   HH11 9887   2.034   7.337   7.715
   11ARG   HH12 9888   1.977   7.372   7.547
   11ARG    NH2 9889   1.757   7.286   7.586
   11ARG   HH21 9890   1.669   7.238   7.600
   11ARG   HH22 9891   1.771   7.349   7.508
   11ARG      C 9892   1.584   7.586   8.090
   11ARG      O 9893   1.525   7.571   8.195
   12LYS      N 9894   1.523   7.622   7.977
   12LYS      H 9895   1.579   7.611   7.893
   12LYS     CA 9896   1.377   7.636   7.957
   12LYS     HA 9897   1.326   7.578   8.034
   12LYS     CB 9898   1.335   7.785   7.970
   12LYS    HB2 9899   1.385   7.831   7.885
   12LYS    HB3 9900   1.228   7.790   7.953
   12LYS     CG 9901   1.370   7.861   8.101
   12LYS    HG2 9902   1.338   7.797   8.183
   12LYS    HG3 9903   1.476   7.861   8.121
   12LYS     CD 9904   1.317   8.006   8.112
   12LYS    HD2 9905   1.213   7.987   8.084
   12LYS    HD3 9906   1.326   8.045   8.213
   12LYS     CE 9907   1.366   8.098   8.001
   12LYS    HE2 9908   1.473   8.118   8.004
   12LYS    HE3 9909   1.352   8.056   7.902
   12LYS     NZ 9910   1.276   8.216   8.005
   12LYS    HZ1 9911   1.304   8.278   8.080
   12LYS    HZ2 9912   1.295   8.272   7.922
   12LYS    HZ3 9913   1.179   8.191   7.999
   12LYS      C 9914   1.324   7.578   7.821
   12LYS      O 9915   1.400   7.570   7.727
   13NHE      N 9916   1.196   7.556   7.811
   13NHE    HN1 9917   1.144   7.565   7.898
   13NHE    HN2 9918   1.160   7.526   7.723
    1ILE      N 9919   3.674   8.046   9.538
    1ILE     H1 9920   3.615   8.106   9.593
    1ILE     H2 9921   3.772   8.059   9.558
    1ILE     H3 9922   3.661   7.947   9.558
    1ILE     CA 9923   3.650   8.076   9.394
    1ILE     HA 9924   3.725   8.021   9.336
    1ILE     CB 9925   3.517   8.027   9.338
    1ILE     HB 9926   3.520   8.059   9.233
    1ILE    CG2 9927   3.526   7.874   9.341
    1ILE   HG21 9928   3.513   7.821   9.436
    1ILE   HG22 9929   3.444   7.829   9.285
    1ILE   HG23 9930   3.612   7.841   9.283
    1ILE    CG1 9931   3.398   8.079   9.418
    1ILE   HG12 9932   3.412   8.183   9.444
    1ILE   HG13 9933   3.375   8.016   9.505
    1ILE    CD1 9934   3.284   8.084   9.317
    1ILE   HD11 9935   3.194   8.132   9.357
    1ILE   HD12 9936   3.320   8.140   9.230
    1ILE   HD13 9937   3.251   7.985   9.286
    1ILE      C 9938   3.682   8.221   9.365
    1ILE      O 9939   3.655   8.304   9.456
    2LEU      N 9940   3.728   8.248   9.242
    2LEU      H 9941   3.729   8.170   9.179
    2LEU     CA 9942   3.758   8.385   9.197
    2LEU     HA 9943   3.809   8.435   9.280
    2LEU     CB 9944   3.850   8.380   9.072
    2LEU    HB2 9945   3.799   8.327   8.992
    2LEU    HB3 9946   3.879   8.479   9.037
    2LEU     CG 9947   3.977   8.298   9.085
    2LEU     HG 9948   3.971   8.193   9.111
    2LEU    CD1 9949   4.060   8.310   8.958
    2LEU   HD11 9950   4.072   8.411   8.919
    2LEU   HD12 9951   4.156   8.263   8.983
    2LEU   HD13 9952   4.029   8.245   8.876
    2LEU    CD2 9953   4.053   8.360   9.203
    2LEU   HD21 9954   4.003   8.327   9.295
    2LEU   HD22 9955   4.156   8.321   9.197
    2LEU   HD23 9956   4.061   8.468   9.195
    2LEU      C 9957   3.625   8.461   9.168
    2LEU      O 9958   3.528   8.401   9.127
    3ARG      N 9959   3.615   8.593   9.192
    3ARG      H 9960   3.693   8.637   9.239
    3ARG     CA 9961   3.498   8.676   9.160
    3ARG     HA 9962   3.417   8.603   9.165
    3ARG     CB 9963   3.482   8.772   9.277
    3ARG    HB2 9964   3.565   8.841   9.277
    3ARG    HB3 9965   3.387   8.826   9.265
    3ARG     CG 9966   3.466   8.712   9.418
    3ARG    HG2 9967   3.561   8.669   9.450
    3ARG    HG3 9968   3.456   8.795   9.489
    3ARG     CD 9969   3.351   8.611   9.439
    3ARG    HD2 9970   3.253   8.660   9.432
    3ARG    HD3 9971   3.338   8.533   9.364
    3ARG     NE 9972   3.347   8.548   9.579
    3ARG     HE 9973   3.399   8.595   9.651
    3ARG     CZ 9974   3.274   8.442   9.612
    3ARG    NH1 9975   3.211   8.371   9.524
    3ARG   HH11 9976   3.189   8.416   9.437
    3ARG   HH12 9977   3.165   8.290   9.564
    3ARG    NH2 9978   3.267   8.414   9.738
    3ARG   HH21 9979   3.325   8.462   9.806
    3ARG   HH22 9980   3.241   8.319   9.756
    3ARG      C 9981   3.487   8.725   9.015
    3ARG      O 9982   3.389   8.793   8.982
    4TRP      N 9983   3.577   8.676   8.928
    4TRP      H 9984   3.633   8.599   8.961
    4TRP     CA 9985   3.559   8.690   8.780
    4TRP     HA 9986   3.463   8.740   8.762
    4TRP     CB 9987   3.673   8.783   8.731
    4TRP    HB2 9988   3.687   8.774   8.624
    4TRP    HB3 9989   3.641   8.887   8.744
    4TRP     CG 9990   3.818   8.752   8.794
    4TRP    CD1 9991   3.889   8.641   8.753
    4TRP    HD1 9992   3.851   8.556   8.697
    4TRP    NE1 9993   4.013   8.648   8.808
    4TRP    HE1 9994   4.096   8.593   8.786
    4TRP    CE2 9995   4.029   8.757   8.896
    4TRP    CZ2 9996   4.125   8.806   8.984
    4TRP    HZ2 9997   4.218   8.755   8.999
    4TRP    CH2 9998   4.108   8.922   9.060
    4TRP    HH2 9999   4.187   8.963   9.123
    4TRP    CZ310000   3.983   8.990   9.053
    4TRP    HZ310001   3.954   9.075   9.115
    4TRP    CE310002   3.885   8.938   8.968
    4TRP    HE310003   3.793   8.990   8.948
    4TRP    CD210004   3.905   8.825   8.885
    4TRP      C10005   3.546   8.549   8.709
    4TRP      O10006   3.587   8.451   8.768
    5PRO      N10007   3.487   8.541   8.585
    5PRO     CD10008   3.426   8.644   8.508
    5PRO    HD210009   3.487   8.734   8.501
    5PRO    HD310010   3.331   8.673   8.552
    5PRO     CG10011   3.400   8.586   8.369
    5PRO    HG210012   3.491   8.595   8.310
    5PRO    HG310013   3.313   8.629   8.318
    5PRO     CB10014   3.390   8.427   8.395
    5PRO    HB210015   3.422   8.369   8.309
    5PRO    HB310016   3.290   8.407   8.431
    5PRO     CA10017   3.488   8.408   8.518
    5PRO     HA10018   3.439   8.341   8.589
    5PRO      C10019   3.628   8.360   8.485
    5PRO      O10020   3.708   8.429   8.420
    6TRP      N10021   3.649   8.238   8.527
    6TRP      H10022   3.574   8.189   8.572
    6TRP     CA10023   3.780   8.164   8.519
    6TRP     HA10024   3.855   8.242   8.507
    6TRP     CB10025   3.827   8.103   8.651
    6TRP    HB210026   3.844   8.182   8.726
    6TRP    HB310027   3.752   8.032   8.687
    6TRP     CG10028   3.953   8.025   8.627
    6TRP    CD110029   3.961   7.889   8.641
    6TRP    HD110030   3.878   7.823   8.661
    6TRP    NE110031   4.080   7.846   8.609
    6TRP    HE110032   4.117   7.754   8.624
    6TRP    CE210033   4.162   7.955   8.582
    6TRP    CZ210034   4.302   7.961   8.544
    6TRP    HZ210035   4.374   7.881   8.542
    6TRP    CH210036   4.360   8.086   8.514
    6TRP    HH210037   4.464   8.095   8.486
    6TRP    CZ310038   4.283   8.199   8.526
    6TRP    HZ310039   4.326   8.298   8.521
    6TRP    CE310040   4.148   8.191   8.551
    6TRP    HE310041   4.102   8.285   8.577
    6TRP    CD210042   4.081   8.071   8.583
    6TRP      C10043   3.785   8.059   8.408
    6TRP      O10044   3.707   7.966   8.405
    7TRP      N10045   3.878   8.073   8.310
    7TRP      H10046   3.926   8.162   8.308
    7TRP     CA10047   3.912   7.959   8.228
    7TRP     HA10048   3.859   7.867   8.256
    7TRP     CB10049   3.856   7.990   8.089
    7TRP    HB210050   3.751   8.022   8.090
    7TRP    HB310051   3.913   8.072   8.045
    7TRP     CG10052   3.865   7.881   7.995
    7TRP    CD110053   3.905   7.887   7.870
    7TRP    HD110054   3.944   7.978   7.825
    7TRP    NE110055   3.898   7.762   7.815
    7TRP    HE110056   3.928   7.738   7.722
    7TRP    CE210057   3.832   7.667   7.896
    7TRP    CZ210058   3.792   7.532   7.874
    7TRP    HZ210059   3.812   7.483   7.779
    7TRP    CH210060   3.712   7.472   7.975
    7TRP    HH210061   3.663   7.379   7.951
    7TRP    CZ310062   3.667   7.554   8.083
    7TRP    HZ310063   3.589   7.515   8.148
    7TRP    CE310064   3.719   7.682   8.105
    7TRP    HE310065   3.680   7.742   8.186
    7TRP    CD210066   3.802   7.746   8.010
    7TRP      C10067   4.062   7.936   8.234
    7TRP      O10068   4.137   8.027   8.215
    8PRO      N10069   4.106   7.809   8.246
    8PRO     CD10070   4.037   7.690   8.301
    8PRO    HD210071   3.997   7.635   8.217
    8PRO    HD310072   3.962   7.725   8.372
    8PRO     CG10073   4.147   7.600   8.357
    8PRO    HG210074   4.098   7.503   8.362
    8PRO    HG310075   4.180   7.635   8.456
    8PRO     CB10076   4.261   7.622   8.259
    8PRO    HB210077   4.245   7.566   8.168
    8PRO    HB310078   4.352   7.597   8.312
    8PRO     CA10079   4.247   7.771   8.234
    8PRO     HA10080   4.302   7.829   8.308
    8PRO      C10081   4.316   7.802   8.096
    8PRO      O10082   4.434   7.773   8.076
    9TRP      N10083   4.254   7.880   8.008
    9TRP      H10084   4.160   7.911   8.030
    9TRP     CA10085   4.306   7.934   7.882
    9TRP     HA10086   4.414   7.941   7.874
    9TRP     CB10087   4.270   7.829   7.774
    9TRP    HB210088   4.312   7.731   7.795
    9TRP    HB310089   4.161   7.821   7.770
    9TRP     CG10090   4.313   7.857   7.634
    9TRP    CD110091   4.233   7.879   7.526
    9TRP    HD110092   4.126   7.868   7.526
    9TRP    NE110093   4.311   7.888   7.410
    9TRP    HE110094   4.276   7.878   7.316
    9TRP    CE210095   4.447   7.893   7.443
    9TRP    CZ210096   4.563   7.918   7.369
    9TRP    HZ210097   4.560   7.932   7.262
    9TRP    CH210098   4.682   7.925   7.436
    9TRP    HH210099   4.771   7.942   7.376
    9TRP    CZ310100   4.691   7.892   7.568
    9TRP    HZ310101   4.785   7.910   7.616
    9TRP    CE310102   4.579   7.864   7.645
    9TRP    HE310103   4.594   7.845   7.750
    9TRP    CD210104   4.451   7.868   7.583
    9TRP      C10105   4.254   8.075   7.856
    9TRP      O10106   4.150   8.105   7.901
   10ARG      N10107   4.320   8.144   7.764
   10ARG      H10108   4.373   8.086   7.700
   10ARG     CA10109   4.280   8.275   7.708
   10ARG     HA10110   4.257   8.341   7.791
   10ARG     CB10111   4.386   8.346   7.619
   10ARG    HB210112   4.382   8.312   7.515
   10ARG    HB310113   4.365   8.453   7.626
   10ARG     CG10114   4.530   8.319   7.661
   10ARG    HG210115   4.550   8.339   7.766
   10ARG    HG310116   4.549   8.215   7.643
   10ARG     CD10117   4.631   8.398   7.581
   10ARG    HD210118   4.601   8.388   7.478
   10ARG    HD310119   4.613   8.505   7.592
   10ARG     NE10120   4.771   8.349   7.619
   10ARG     HE10121   4.797   8.346   7.716
   10ARG     CZ10122   4.857   8.298   7.541
   10ARG    NH110123   4.835   8.273   7.413
   10ARG   HH1110124   4.745   8.297   7.372
   10ARG   HH1210125   4.915   8.247   7.358
   10ARG    NH210126   4.976   8.265   7.582
   10ARG   HH2110127   4.972   8.219   7.671
   10ARG   HH2210128   5.029   8.223   7.508
   10ARG      C10129   4.142   8.270   7.638
   10ARG      O10130   4.096   8.168   7.590
   11ARG      N10131   4.074   8.385   7.638
   11ARG      H10132   4.131   8.465   7.662
   11ARG     CA10133   3.939   8.411   7.583
   11ARG     HA10134   3.919   8.362   7.487
   11ARG     CB10135   3.822   8.375   7.680
   11ARG    HB210136   3.840   8.398   7.785
   11ARG    HB310137   3.724   8.419   7.660
   11ARG     CG10138   3.799   8.224   7.686
   11ARG    HG210139   3.760   8.189   7.591
   11ARG    HG310140   3.889   8.166   7.709
   11ARG     CD10141   3.700   8.193   7.797
   11ARG    HD210142   3.698   8.085   7.810
   11ARG    HD310143   3.736   8.228   7.894
   11ARG     NE10144   3.564   8.249   7.765
   11ARG     HE10145   3.562   8.346   7.794
   11ARG     CZ10146   3.485   8.207   7.666
   11ARG    NH110147   3.506   8.087   7.616
   11ARG   HH1110148   3.580   8.035   7.659
   11ARG   HH1210149   3.440   8.053   7.548
   11ARG    NH210150   3.389   8.275   7.621
   11ARG   HH2110151   3.361   8.364   7.661
   11ARG   HH2210152   3.353   8.245   7.532
   11ARG      C10153   3.927   8.561   7.563
   11ARG      O10154   3.999   8.642   7.618
   12LYS      N10155   3.833   8.595   7.474
   12LYS      H10156   3.767   8.521   7.452
   12LYS     CA10157   3.792   8.732   7.440
   12LYS     HA10158   3.822   8.799   7.520
   12LYS     CB10159   3.863   8.778   7.309
   12LYS    HB210160   3.820   8.711   7.235
   12LYS    HB310161   3.828   8.879   7.287
   12LYS     CG10162   4.018   8.774   7.303
   12LYS    HG210163   4.053   8.824   7.394
   12LYS    HG310164   4.057   8.675   7.322
   12LYS     CD10165   4.083   8.829   7.175
   12LYS    HD210166   4.028   8.924   7.169
   12LYS    HD310167   4.190   8.844   7.186
   12LYS     CE10168   4.039   8.758   7.047
   12LYS    HE210169   4.072   8.655   7.041
   12LYS    HE310170   3.932   8.748   7.039
   12LYS     NZ10171   4.078   8.847   6.936
   12LYS    HZ110172   4.177   8.838   6.917
   12LYS    HZ210173   4.035   8.811   6.851
   12LYS    HZ310174   4.042   8.940   6.946
   12LYS      C10175   3.637   8.753   7.426
   12LYS      O10176   3.567   8.657   7.398
   13NHE      N10177   3.592   8.875   7.428
   13NHE    HN110178   3.661   8.946   7.454
   13NHE    HN210179   3.495   8.890   7.412
    1ILE      N10180  11.219   5.072   3.084
    1ILE     H110181  11.245   5.122   3.168
    1ILE     H210182  11.122   5.085   3.060
    1ILE     H310183  11.267   5.106   3.001
    1ILE     CA10184  11.246   4.927   3.105
    1ILE     HA10185  11.204   4.873   3.020
    1ILE     CB10186  11.393   4.887   3.107
    1ILE     HB10187  11.389   4.779   3.124
    1ILE    CG210188  11.442   4.911   2.963
    1ILE   HG2110189  11.463   5.012   2.930
    1ILE   HG2210190  11.540   4.867   2.948
    1ILE   HG2310191  11.381   4.853   2.893
    1ILE    CG110192  11.474   4.966   3.209
    1ILE   HG1210193  11.418   4.977   3.301
    1ILE   HG1310194  11.509   5.062   3.170
    1ILE    CD110195  11.588   4.872   3.247
    1ILE   HD1110196  11.648   4.911   3.330
    1ILE   HD1210197  11.543   4.777   3.275
    1ILE   HD1310198  11.658   4.858   3.166
    1ILE      C10199  11.165   4.877   3.223
    1ILE      O10200  11.148   4.957   3.319
    2LEU      N10201  11.126   4.749   3.217
    2LEU      H10202  11.161   4.697   3.139
    2LEU     CA10203  11.051   4.684   3.326
    2LEU     HA10204  10.976   4.755   3.361
    2LEU     CB10205  10.982   4.555   3.273
    2LEU    HB210206  11.058   4.486   3.236
    2LEU    HB310207  10.922   4.504   3.349
    2LEU     CG10208  10.895   4.572   3.149
    2LEU     HG10209  10.938   4.612   3.058
    2LEU    CD110210  10.829   4.439   3.115
    2LEU   HD1110211  10.784   4.386   3.198
    2LEU   HD1210212  10.755   4.465   3.037
    2LEU   HD1310213  10.891   4.369   3.059
    2LEU    CD210214  10.789   4.675   3.189
    2LEU   HD2110215  10.837   4.773   3.188
    2LEU   HD2210216  10.710   4.668   3.113
    2LEU   HD2310217  10.742   4.651   3.284
    2LEU      C10218  11.149   4.653   3.444
    2LEU      O10219  11.265   4.626   3.423
    3ARG      N10220  11.105   4.659   3.571
    3ARG      H10221  11.011   4.694   3.586
    3ARG     CA10222  11.185   4.622   3.689
    3ARG     HA10223  11.286   4.642   3.655
    3ARG     CB10224  11.151   4.726   3.796
    3ARG    HB210225  11.048   4.711   3.827
    3ARG    HB310226  11.218   4.712   3.881
    3ARG     CG10227  11.173   4.875   3.762
    3ARG    HG210228  11.098   4.906   3.689
    3ARG    HG310229  11.143   4.934   3.849
    3ARG     CD10230  11.314   4.916   3.716
    3ARG    HD210231  11.386   4.908   3.798
    3ARG    HD310232  11.364   4.854   3.642
    3ARG     NE10233  11.326   5.063   3.675
    3ARG     HE10234  11.253   5.125   3.705
    3ARG     CZ10235  11.429   5.115   3.610
    3ARG    NH110236  11.524   5.042   3.560
    3ARG   HH1110237  11.537   4.951   3.600
    3ARG   HH1210238  11.593   5.095   3.508
    3ARG    NH210239  11.433   5.244   3.600
    3ARG   HH2110240  11.354   5.301   3.629
    3ARG   HH2210241  11.491   5.277   3.524
    3ARG      C10242  11.192   4.473   3.723
    3ARG      O10243  11.261   4.436   3.820
    4TRP      N10244  11.137   4.388   3.635
    4TRP      H10245  11.112   4.428   3.546
    4TRP     CA10246  11.165   4.241   3.639
    4TRP     HA10247  11.236   4.223   3.720
    4TRP     CB10248  11.031   4.173   3.675
    4TRP    HB210249  11.033   4.067   3.650
    4TRP    HB310250  11.020   4.173   3.784
    4TRP     CG10251  10.902   4.231   3.596
    4TRP    CD110252  10.883   4.201   3.463
    4TRP    HD110253  10.956   4.160   3.395
    4TRP    NE110254  10.760   4.247   3.427
    4TRP    HE110255  10.707   4.228   3.343
    4TRP    CE210256  10.695   4.318   3.530
    4TRP    CZ210257  10.579   4.392   3.547
    4TRP    HZ210258  10.511   4.408   3.465
    4TRP    CH210259  10.542   4.452   3.668
    4TRP    HH210260  10.447   4.503   3.681
    4TRP    CZ310261  10.632   4.444   3.778
    4TRP    HZ310262  10.620   4.495   3.873
    4TRP    CE310263  10.751   4.373   3.759
    4TRP    HE310264  10.818   4.351   3.841
    4TRP    CD210265  10.785   4.305   3.639
    4TRP      C10266  11.238   4.191   3.507
    4TRP      O10267  11.231   4.260   3.408
    5PRO      N10268  11.309   4.073   3.510
    5PRO     CD10269  11.334   3.987   3.620
    5PRO    HD210270  11.245   3.963   3.678
    5PRO    HD310271  11.406   4.032   3.688
    5PRO     CG10272  11.396   3.858   3.563
    5PRO    HG210273  11.315   3.794   3.530
    5PRO    HG310274  11.465   3.808   3.630
    5PRO     CB10275  11.462   3.907   3.424
    5PRO    HB210276  11.464   3.828   3.349
    5PRO    HB310277  11.558   3.952   3.448
    5PRO     CA10278  11.366   4.025   3.381
    5PRO     HA10279  11.428   4.108   3.346
    5PRO      C10280  11.258   3.990   3.279
    5PRO      O10281  11.166   3.912   3.305
    6TRP      N10282  11.281   4.048   3.163
    6TRP      H10283  11.364   4.104   3.153
    6TRP     CA10284  11.189   4.043   3.045
    6TRP     HA10285  11.092   4.015   3.085
    6TRP     CB10286  11.154   4.179   2.984
    6TRP    HB210287  11.101   4.240   3.058
    6TRP    HB310288  11.246   4.228   2.952
    6TRP     CG10289  11.071   4.158   2.861
    6TRP    CD110290  11.113   4.190   2.735
    6TRP    HD110291  11.212   4.225   2.709
    6TRP    NE110292  11.023   4.157   2.646
    6TRP    HE110293  11.023   4.182   2.549
    6TRP    CE210294  10.910   4.111   2.711
    6TRP    CZ210295  10.783   4.063   2.659
    6TRP    HZ210296  10.747   4.068   2.557
    6TRP    CH210297  10.686   4.013   2.747
    6TRP    HH210298  10.590   3.978   2.712
    6TRP    CZ310299  10.712   4.014   2.882
    6TRP    HZ310300  10.636   3.992   2.955
    6TRP    CE310301  10.837   4.048   2.929
    6TRP    HE310302  10.841   4.063   3.036
    6TRP    CD210303  10.940   4.101   2.849
    6TRP      C10304  11.236   3.947   2.934
    6TRP      O10305  11.343   3.962   2.879
    7TRP      N10306  11.157   3.843   2.901
    7TRP      H10307  11.078   3.826   2.963
    7TRP     CA10308  11.177   3.775   2.775
    7TRP     HA10309  11.257   3.818   2.714
    7TRP     CB10310  11.232   3.637   2.811
    7TRP    HB210311  11.316   3.640   2.881
    7TRP    HB310312  11.153   3.578   2.859
    7TRP     CG10313  11.275   3.559   2.697
    7TRP    CD110314  11.250   3.432   2.674
    7TRP    HD110315  11.185   3.373   2.738
    7TRP    NE110316  11.310   3.395   2.557
    7TRP    HE110317  11.302   3.305   2.513
    7TRP    CE210318  11.397   3.492   2.504
    7TRP    CZ210319  11.488   3.491   2.394
    7TRP    HZ210320  11.497   3.404   2.331
    7TRP    CH210321  11.573   3.605   2.380
    7TRP    HH210322  11.656   3.597   2.312
    7TRP    CZ310323  11.571   3.703   2.484
    7TRP    HZ310324  11.650   3.777   2.486
    7TRP    CE310325  11.472   3.704   2.584
    7TRP    HE310326  11.477   3.778   2.662
    7TRP    CD210327  11.382   3.596   2.600
    7TRP      C10328  11.048   3.776   2.696
    7TRP      O10329  10.946   3.739   2.749
    8PRO      N10330  11.053   3.802   2.564
    8PRO     CD10331  11.156   3.877   2.488
    8PRO    HD210332  11.223   3.804   2.444
    8PRO    HD310333  11.204   3.947   2.557
    8PRO     CG10334  11.082   3.938   2.369
    8PRO    HG210335  11.164   3.959   2.299
    8PRO    HG310336  11.028   4.029   2.398
    8PRO     CB10337  10.980   3.831   2.334
    8PRO    HB210338  11.026   3.750   2.280
    8PRO    HB310339  10.899   3.882   2.282
    8PRO     CA10340  10.940   3.786   2.474
    8PRO     HA10341  10.859   3.849   2.513
    8PRO      C10342  10.879   3.642   2.461
    8PRO      O10343  10.784   3.619   2.386
    9TRP      N10344  10.917   3.548   2.547
    9TRP      H10345  10.989   3.571   2.614
    9TRP     CA10346  10.862   3.412   2.563
    9TRP     HA10347  10.761   3.397   2.527
    9TRP     CB10348  10.947   3.323   2.470
    9TRP    HB210349  10.943   3.354   2.366
    9TRP    HB310350  11.050   3.326   2.504
    9TRP     CG10351  10.912   3.178   2.464
    9TRP    CD110352  10.989   3.073   2.504
    9TRP    HD110353  11.092   3.081   2.535
    9TRP    NE110354  10.927   2.952   2.469
    9TRP    HE110355  10.973   2.862   2.465
    9TRP    CE210356  10.796   2.976   2.425
    9TRP    CZ210357  10.688   2.892   2.394
    9TRP    HZ210358  10.697   2.784   2.398
    9TRP    CH210359  10.569   2.950   2.362
    9TRP    HH210360  10.487   2.883   2.337
    9TRP    CZ310361  10.559   3.084   2.342
    9TRP    HZ310362  10.460   3.123   2.327
    9TRP    CE310363  10.663   3.171   2.368
    9TRP    HE310364  10.646   3.276   2.356
    9TRP    CD210365  10.787   3.117   2.415
    9TRP      C10366  10.859   3.370   2.709
    9TRP      O10367  10.938   3.417   2.782
   10ARG      N10368  10.783   3.266   2.737
   10ARG      H10369  10.764   3.208   2.657
   10ARG     CA10370  10.777   3.195   2.867
   10ARG     HA10371  10.764   3.269   2.945
   10ARG     CB10372  10.662   3.091   2.881
   10ARG    HB210373  10.689   2.993   2.841
   10ARG    HB310374  10.640   3.084   2.988
   10ARG     CG10375  10.535   3.127   2.806
   10ARG    HG210376  10.497   3.227   2.827
   10ARG    HG310377  10.559   3.122   2.701
   10ARG     CD10378  10.421   3.031   2.830
   10ARG    HD210379  10.464   2.932   2.822
   10ARG    HD310380  10.396   3.028   2.936
   10ARG     NE10381  10.307   3.067   2.735
   10ARG     HE10382  10.273   3.161   2.732
   10ARG     CZ10383  10.256   2.992   2.646
   10ARG    NH110384  10.299   2.870   2.619
   10ARG   HH1110385  10.377   2.831   2.671
   10ARG   HH1210386  10.242   2.814   2.559
   10ARG    NH210387  10.154   3.029   2.574
   10ARG   HH2110388  10.166   3.124   2.543
   10ARG   HH2210389  10.129   2.959   2.507
   10ARG      C10390  10.912   3.135   2.908
   10ARG      O10391  10.999   3.104   2.828
   11ARG      N10392  10.932   3.123   3.040
   11ARG      H10393  10.847   3.133   3.094
   11ARG     CA10394  11.052   3.073   3.111
   11ARG     HA10395  11.100   2.987   3.064
   11ARG     CB10396  11.163   3.182   3.133
   11ARG    HB210397  11.126   3.281   3.158
   11ARG    HB310398  11.239   3.162   3.210
   11ARG     CG10399  11.240   3.210   3.004
   11ARG    HG210400  11.300   3.123   2.978
   11ARG    HG310401  11.177   3.235   2.919
   11ARG     CD10402  11.331   3.329   3.027
   11ARG    HD210403  11.372   3.357   2.930
   11ARG    HD310404  11.274   3.418   3.055
   11ARG     NE10405  11.439   3.298   3.128
   11ARG     HE10406  11.401   3.314   3.220
   11ARG     CZ10407  11.537   3.211   3.109
   11ARG    NH110408  11.569   3.177   2.986
   11ARG   HH1110409  11.516   3.223   2.914
   11ARG   HH1210410  11.650   3.119   2.974
   11ARG    NH210411  11.605   3.164   3.204
   11ARG   HH2110412  11.593   3.193   3.300
   11ARG   HH2210413  11.660   3.081   3.181
   11ARG      C10414  11.009   3.034   3.251
   11ARG      O10415  10.907   3.072   3.302
   12LYS      N10416  11.093   2.947   3.309
   12LYS      H10417  11.183   2.939   3.265
   12LYS     CA10418  11.082   2.896   3.447
   12LYS     HA10419  11.021   2.965   3.505
   12LYS     CB10420  11.014   2.756   3.448
   12LYS    HB210421  11.086   2.695   3.395
   12LYS    HB310422  11.010   2.723   3.551
   12LYS     CG10423  10.873   2.742   3.384
   12LYS    HG210424  10.812   2.822   3.425
   12LYS    HG310425  10.873   2.772   3.280
   12LYS     CD10426  10.807   2.603   3.396
   12LYS    HD210427  10.822   2.587   3.503
   12LYS    HD310428  10.702   2.605   3.368
   12LYS     CE10429  10.888   2.489   3.334
   12LYS    HE210430  10.897   2.496   3.226
   12LYS    HE310431  10.991   2.490   3.366
   12LYS     NZ10432  10.831   2.364   3.389
   12LYS    HZ110433  10.746   2.341   3.340
   12LYS    HZ210434  10.893   2.288   3.363
   12LYS    HZ310435  10.828   2.364   3.489
   12LYS      C10436  11.218   2.889   3.525
   12LYS      O10437  11.321   2.879   3.462
   13NHE      N10438  11.213   2.877   3.655
   13NHE    HN110439  11.121   2.889   3.695
   13NHE    HN210440  11.299   2.865   3.704
  12.50000  12.50000  12.50000
