Built with Packmol
10440
    1ILE      N    1   9.836   1.049   5.673
    1ILE     H1    2   9.789   0.962   5.690
    1ILE     H2    3   9.938   1.043   5.663
    1ILE     H3    4   9.803   1.065   5.579
    1ILE     CA    5   9.798   1.170   5.747
    1ILE     HA    6   9.833   1.255   5.690
    1ILE     CB    7   9.640   1.175   5.766
    1ILE     HB    8   9.579   1.155   5.677
    1ILE    CG2    9   9.608   1.065   5.868
    1ILE   HG21   10   9.602   1.105   5.969
    1ILE   HG22   11   9.515   1.011   5.848
    1ILE   HG23   12   9.686   0.990   5.871
    1ILE    CG1   13   9.584   1.316   5.801
    1ILE   HG12   14   9.633   1.394   5.741
    1ILE   HG13   15   9.602   1.337   5.906
    1ILE    CD1   16   9.433   1.330   5.776
    1ILE   HD11   17   9.374   1.265   5.840
    1ILE   HD12   18   9.402   1.427   5.813
    1ILE   HD13   19   9.399   1.319   5.673
    1ILE      C   20   9.879   1.185   5.874
    1ILE      O   21   9.913   1.084   5.933
    2LEU      N   22   9.908   1.309   5.913
    2LEU      H   23   9.871   1.384   5.857
    2LEU     CA   24   9.951   1.342   6.050
    2LEU     HA   25   9.968   1.253   6.113
    2LEU     CB   26  10.086   1.411   6.053
    2LEU    HB2   27  10.066   1.517   6.038
    2LEU    HB3   28  10.130   1.399   6.151
    2LEU     CG   29  10.190   1.372   5.949
    2LEU     HG   30  10.163   1.394   5.846
    2LEU    CD1   31  10.316   1.468   5.965
    2LEU   HD11   32  10.292   1.561   5.913
    2LEU   HD12   33  10.334   1.486   6.071
    2LEU   HD13   34  10.411   1.429   5.926
    2LEU    CD2   35  10.238   1.232   5.966
    2LEU   HD21   36  10.250   1.218   6.073
    2LEU   HD22   37  10.154   1.166   5.941
    2LEU   HD23   38  10.326   1.204   5.910
    2LEU      C   39   9.848   1.428   6.127
    2LEU      O   40   9.766   1.501   6.069
    3ARG      N   41   9.843   1.406   6.257
    3ARG      H   42   9.910   1.342   6.296
    3ARG     CA   43   9.742   1.465   6.349
    3ARG     HA   44   9.691   1.545   6.295
    3ARG     CB   45   9.630   1.365   6.390
    3ARG    HB2   46   9.550   1.424   6.433
    3ARG    HB3   47   9.590   1.327   6.296
    3ARG     CG   48   9.666   1.245   6.484
    3ARG    HG2   49   9.748   1.185   6.447
    3ARG    HG3   50   9.690   1.283   6.583
    3ARG     CD   51   9.551   1.149   6.512
    3ARG    HD2   52   9.572   1.101   6.608
    3ARG    HD3   53   9.462   1.207   6.537
    3ARG     NE   54   9.528   1.049   6.413
    3ARG     HE   55   9.587   0.969   6.422
    3ARG     CZ   56   9.427   1.047   6.324
    3ARG    NH1   57   9.322   1.126   6.333
    3ARG   HH11   58   9.325   1.212   6.384
    3ARG   HH12   59   9.243   1.119   6.273
    3ARG    NH2   60   9.435   0.951   6.229
    3ARG   HH21   61   9.507   0.882   6.226
    3ARG   HH22   62   9.354   0.943   6.167
    3ARG      C   63   9.804   1.523   6.474
    3ARG      O   64   9.915   1.491   6.513
    4TRP      N   65   9.740   1.629   6.526
    4TRP      H   66   9.647   1.652   6.494
    4TRP     CA   67   9.795   1.712   6.636
    4TRP     HA   68   9.873   1.656   6.689
    4TRP     CB   69   9.863   1.838   6.569
    4TRP    HB2   70   9.800   1.879   6.489
    4TRP    HB3   71   9.894   1.912   6.644
    4TRP     CG   72   9.990   1.809   6.496
    4TRP    CD1   73  10.110   1.790   6.553
    4TRP    HD1   74  10.133   1.792   6.659
    4TRP    NE1   75  10.204   1.779   6.456
    4TRP    HE1   76  10.301   1.758   6.478
    4TRP    CE2   77  10.151   1.786   6.331
    4TRP    CZ2   78  10.199   1.776   6.200
    4TRP    HZ2   79  10.302   1.765   6.169
    4TRP    CH2   80  10.108   1.778   6.095
    4TRP    HH2   81  10.138   1.774   5.991
    4TRP    CZ3   82   9.971   1.766   6.117
    4TRP    HZ3   83   9.906   1.769   6.030
    4TRP    CE3   84   9.914   1.776   6.247
    4TRP    HE3   85   9.806   1.772   6.264
    4TRP    CD2   86  10.005   1.790   6.357
    4TRP      C   87   9.679   1.760   6.739
    4TRP      O   88   9.561   1.746   6.706
    5PRO      N   89   9.714   1.820   6.852
    5PRO     CD   90   9.844   1.799   6.909
    5PRO    HD2   91   9.910   1.883   6.889
    5PRO    HD3   92   9.895   1.705   6.881
    5PRO     CG   93   9.816   1.796   7.063
    5PRO    HG2   94   9.904   1.822   7.122
    5PRO    HG3   95   9.788   1.694   7.090
    5PRO     CB   96   9.707   1.899   7.076
    5PRO    HB2   97   9.747   2.001   7.066
    5PRO    HB3   98   9.654   1.874   7.167
    5PRO     CA   99   9.623   1.872   6.952
    5PRO     HA  100   9.552   1.793   6.977
    5PRO      C  101   9.544   1.997   6.909
    5PRO      O  102   9.594   2.055   6.808
    6TRP      N  103   9.448   2.055   6.979
    6TRP      H  104   9.414   1.992   7.050
    6TRP     CA  105   9.381   2.189   6.949
    6TRP     HA  106   9.365   2.200   6.841
    6TRP     CB  107   9.238   2.184   7.016
    6TRP    HB2  108   9.252   2.155   7.121
    6TRP    HB3  109   9.185   2.279   7.019
    6TRP     CG  110   9.133   2.094   6.950
    6TRP    CD1  111   9.105   1.966   6.986
    6TRP    HD1  112   9.150   1.924   7.077
    6TRP    NE1  113   9.013   1.900   6.900
    6TRP    HE1  114   8.993   1.802   6.913
    6TRP    CE2  115   8.996   1.981   6.793
    6TRP    CZ2  116   8.925   1.967   6.672
    6TRP    HZ2  117   8.887   1.870   6.644
    6TRP    CH2  118   8.912   2.069   6.580
    6TRP    HH2  119   8.861   2.043   6.489
    6TRP    CZ3  120   8.974   2.194   6.597
    6TRP    HZ3  121   8.968   2.271   6.522
    6TRP    CE3  122   9.050   2.209   6.717
    6TRP    HE3  123   9.097   2.304   6.738
    6TRP    CD2  124   9.060   2.106   6.820
    6TRP      C  125   9.456   2.308   6.991
    6TRP      O  126   9.422   2.422   6.953
    7TRP      N  127   9.564   2.287   7.071
    7TRP      H  128   9.580   2.191   7.095
    7TRP     CA  129   9.639   2.395   7.136
    7TRP     HA  130   9.566   2.462   7.180
    7TRP     CB  131   9.732   2.333   7.241
    7TRP    HB2  132   9.831   2.318   7.199
    7TRP    HB3  133   9.751   2.412   7.314
    7TRP     CG  134   9.692   2.216   7.329
    7TRP    CD1  135   9.775   2.135   7.399
    7TRP    HD1  136   9.883   2.147   7.401
    7TRP    NE1  137   9.713   2.035   7.470
    7TRP    HE1  138   9.769   1.966   7.517
    7TRP    CE2  139   9.576   2.053   7.455
    7TRP    CZ2  140   9.472   1.982   7.514
    7TRP    HZ2  141   9.496   1.898   7.579
    7TRP    CH2  142   9.340   2.013   7.481
    7TRP    HH2  143   9.261   1.959   7.531
    7TRP    CZ3  144   9.315   2.119   7.392
    7TRP    HZ3  145   9.213   2.139   7.360
    7TRP    CE3  146   9.424   2.200   7.349
    7TRP    HE3  147   9.407   2.294   7.299
    7TRP    CD2  148   9.561   2.165   7.371
    7TRP      C  149   9.713   2.470   7.029
    7TRP      O  150   9.762   2.407   6.936
    8PRO      N  151   9.742   2.603   7.042
    8PRO     CD  152   9.721   2.686   7.160
    8PRO    HD2  153   9.765   2.641   7.249
    8PRO    HD3  154   9.614   2.702   7.170
    8PRO     CG  155   9.802   2.812   7.131
    8PRO    HG2  156   9.898   2.806   7.181
    8PRO    HG3  157   9.752   2.898   7.173
    8PRO     CB  158   9.811   2.821   6.976
    8PRO    HB2  159   9.908   2.862   6.948
    8PRO    HB3  160   9.720   2.868   6.936
    8PRO     CA  161   9.809   2.676   6.933
    8PRO     HA  162   9.750   2.676   6.842
    8PRO      C  163   9.950   2.630   6.902
    8PRO      O  164  10.041   2.641   6.991
    9TRP      N  165   9.967   2.579   6.778
    9TRP      H  166   9.888   2.570   6.718
    9TRP     CA  167  10.097   2.539   6.719
    9TRP     HA  168  10.181   2.595   6.760
    9TRP     CB  169  10.112   2.385   6.744
    9TRP    HB2  170  10.018   2.344   6.710
    9TRP    HB3  171  10.195   2.351   6.681
    9TRP     CG  172  10.126   2.338   6.891
    9TRP    CD1  173  10.049   2.255   6.967
    9TRP    HD1  174   9.965   2.198   6.933
    9TRP    NE1  175  10.096   2.243   7.097
    9TRP    HE1  176  10.059   2.186   7.172
    9TRP    CE2  177  10.198   2.333   7.121
    9TRP    CZ2  178  10.282   2.365   7.230
    9TRP    HZ2  179  10.266   2.316   7.325
    9TRP    CH2  180  10.395   2.441   7.210
    9TRP    HH2  181  10.458   2.453   7.296
    9TRP    CZ3  182  10.419   2.496   7.083
    9TRP    HZ3  183  10.507   2.559   7.076
    9TRP    CE3  184  10.334   2.470   6.972
    9TRP    HE3  185  10.362   2.505   6.874
    9TRP    CD2  186  10.219   2.391   6.992
    9TRP      C  187  10.096   2.567   6.567
    9TRP      O  188  10.017   2.514   6.493
   10ARG      N  189  10.191   2.648   6.522
   10ARG      H  190  10.239   2.703   6.593
   10ARG     CA  191  10.213   2.673   6.386
   10ARG     HA  192  10.117   2.684   6.337
   10ARG     CB  193  10.299   2.797   6.376
   10ARG    HB2  194  10.394   2.783   6.430
   10ARG    HB3  195  10.330   2.801   6.271
   10ARG     CG  196  10.237   2.928   6.419
   10ARG    HG2  197  10.149   2.936   6.354
   10ARG    HG3  198  10.191   2.927   6.517
   10ARG     CD  199  10.335   3.052   6.401
   10ARG    HD2  200  10.280   3.145   6.413
   10ARG    HD3  201  10.422   3.043   6.466
   10ARG     NE  202  10.378   3.063   6.258
   10ARG     HE  203  10.303   3.082   6.193
   10ARG     CZ  204  10.502   3.033   6.214
   10ARG    NH1  205  10.580   2.955   6.284
   10ARG   HH11  206  10.549   2.895   6.360
   10ARG   HH12  207  10.676   2.950   6.253
   10ARG    NH2  208  10.547   3.083   6.100
   10ARG   HH21  209  10.504   3.159   6.050
   10ARG   HH22  210  10.638   3.052   6.071
   10ARG      C  211  10.285   2.555   6.322
   10ARG      O  212  10.373   2.492   6.383
   11ARG      N  213  10.252   2.514   6.198
   11ARG      H  214  10.178   2.568   6.155
   11ARG     CA  215  10.311   2.409   6.114
   11ARG     HA  216  10.418   2.418   6.138
   11ARG     CB  217  10.264   2.261   6.156
   11ARG    HB2  218  10.295   2.190   6.079
   11ARG    HB3  219  10.306   2.234   6.253
   11ARG     CG  220  10.110   2.248   6.160
   11ARG    HG2  221  10.073   2.327   6.224
   11ARG    HG3  222  10.068   2.272   6.061
   11ARG     CD  223  10.059   2.108   6.220
   11ARG    HD2  224  10.069   2.043   6.136
   11ARG    HD3  225  10.120   2.083   6.307
   11ARG     NE  226   9.914   2.119   6.252
   11ARG     HE  227   9.843   2.136   6.182
   11ARG     CZ  228   9.867   2.133   6.374
   11ARG    NH1  229   9.929   2.148   6.489
   11ARG   HH11  230  10.029   2.143   6.500
   11ARG   HH12  231   9.876   2.182   6.567
   11ARG    NH2  232   9.737   2.141   6.387
   11ARG   HH21  233   9.684   2.155   6.303
   11ARG   HH22  234   9.689   2.118   6.472
   11ARG      C  235  10.293   2.443   5.968
   11ARG      O  236  10.185   2.498   5.939
   12LYS      N  237  10.379   2.396   5.878
   12LYS      H  238  10.460   2.352   5.918
   12LYS     CA  239  10.365   2.409   5.730
   12LYS     HA  240  10.382   2.515   5.719
   12LYS     CB  241  10.479   2.323   5.668
   12LYS    HB2  242  10.571   2.327   5.726
   12LYS    HB3  243  10.452   2.218   5.678
   12LYS     CG  244  10.523   2.357   5.531
   12LYS    HG2  245  10.438   2.361   5.463
   12LYS    HG3  246  10.577   2.452   5.533
   12LYS     CD  247  10.618   2.257   5.477
   12LYS    HD2  248  10.710   2.257   5.536
   12LYS    HD3  249  10.573   2.158   5.475
   12LYS     CE  250  10.645   2.296   5.325
   12LYS    HE2  251  10.550   2.304   5.274
   12LYS    HE3  252  10.692   2.392   5.304
   12LYS     NZ  253  10.722   2.192   5.254
   12LYS    HZ1  254  10.822   2.192   5.272
   12LYS    HZ2  255  10.688   2.097   5.266
   12LYS    HZ3  256  10.718   2.219   5.156
   12LYS      C  257  10.230   2.383   5.663
   12LYS      O  258  10.163   2.288   5.698
   13NHE      N  259  10.210   2.464   5.556
   13NHE    HN1  260  10.272   2.541   5.533
   13NHE    HN2  261  10.132   2.453   5.494
    1ILE      N  262   8.294   0.579   2.556
    1ILE     H1  263   8.200   0.575   2.521
    1ILE     H2  264   8.304   0.607   2.654
    1ILE     H3  265   8.313   0.480   2.557
    1ILE     CA  266   8.402   0.637   2.475
    1ILE     HA  267   8.496   0.599   2.513
    1ILE     CB  268   8.383   0.597   2.322
    1ILE     HB  269   8.362   0.492   2.301
    1ILE    CG2  270   8.261   0.678   2.274
    1ILE   HG21  271   8.291   0.771   2.226
    1ILE   HG22  272   8.197   0.623   2.204
    1ILE   HG23  273   8.198   0.706   2.357
    1ILE    CG1  274   8.511   0.613   2.235
    1ILE   HG12  275   8.600   0.577   2.288
    1ILE   HG13  276   8.525   0.718   2.211
    1ILE    CD1  277   8.505   0.535   2.102
    1ILE   HD11  278   8.427   0.571   2.036
    1ILE   HD12  279   8.593   0.561   2.045
    1ILE   HD13  280   8.498   0.426   2.110
    1ILE      C  281   8.418   0.785   2.501
    1ILE      O  282   8.318   0.850   2.528
    2LEU      N  283   8.541   0.836   2.494
    2LEU      H  284   8.614   0.772   2.468
    2LEU     CA  285   8.568   0.980   2.479
    2LEU     HA  286   8.478   1.042   2.487
    2LEU     CB  287   8.655   1.033   2.590
    2LEU    HB2  288   8.759   1.015   2.560
    2LEU    HB3  289   8.642   1.141   2.598
    2LEU     CG  290   8.641   0.974   2.730
    2LEU     HG  291   8.667   0.868   2.738
    2LEU    CD1  292   8.752   1.037   2.824
    2LEU   HD11  293   8.844   0.983   2.805
    2LEU   HD12  294   8.764   1.143   2.800
    2LEU   HD13  295   8.730   1.035   2.931
    2LEU    CD2  296   8.508   1.003   2.791
    2LEU   HD21  297   8.486   1.107   2.766
    2LEU   HD22  298   8.433   0.948   2.734
    2LEU   HD23  299   8.498   0.983   2.897
    2LEU      C  300   8.631   1.016   2.343
    2LEU      O  301   8.696   0.934   2.275
    3ARG      N  302   8.598   1.134   2.295
    3ARG      H  303   8.541   1.194   2.353
    3ARG     CA  304   8.634   1.185   2.160
    3ARG     HA  305   8.710   1.118   2.119
    3ARG     CB  306   8.516   1.180   2.059
    3ARG    HB2  307   8.559   1.192   1.960
    3ARG    HB3  308   8.481   1.076   2.061
    3ARG     CG  309   8.395   1.277   2.078
    3ARG    HG2  310   8.351   1.270   2.177
    3ARG    HG3  311   8.427   1.379   2.058
    3ARG     CD  312   8.282   1.258   1.978
    3ARG    HD2  313   8.229   1.354   1.970
    3ARG    HD3  314   8.324   1.250   1.878
    3ARG     NE  315   8.188   1.155   2.009
    3ARG     HE  316   8.117   1.182   2.073
    3ARG     CZ  317   8.179   1.035   1.948
    3ARG    NH1  318   8.241   1.007   1.835
    3ARG   HH11  319   8.322   1.058   1.806
    3ARG   HH12  320   8.228   0.922   1.785
    3ARG    NH2  321   8.093   0.947   2.005
    3ARG   HH21  322   8.035   0.969   2.084
    3ARG   HH22  323   8.079   0.859   1.954
    3ARG      C  324   8.690   1.325   2.162
    3ARG      O  325   8.670   1.401   2.256
    4TRP      N  326   8.781   1.353   2.068
    4TRP      H  327   8.792   1.290   1.990
    4TRP     CA  328   8.861   1.478   2.066
    4TRP     HA  329   8.812   1.554   2.127
    4TRP     CB  330   9.001   1.444   2.131
    4TRP    HB2  331   9.039   1.347   2.095
    4TRP    HB3  332   9.072   1.526   2.121
    4TRP     CG  333   8.996   1.421   2.279
    4TRP    CD1  334   8.991   1.517   2.372
    4TRP    HD1  335   8.987   1.625   2.355
    4TRP    NE1  336   9.001   1.461   2.495
    4TRP    HE1  337   8.992   1.517   2.580
    4TRP    CE2  338   9.011   1.325   2.489
    4TRP    CZ2  339   9.019   1.221   2.582
    4TRP    HZ2  340   9.025   1.230   2.690
    4TRP    CH2  341   9.016   1.090   2.535
    4TRP    HH2  342   9.026   1.005   2.600
    4TRP    CZ3  343   8.984   1.060   2.404
    4TRP    HZ3  344   8.984   0.956   2.374
    4TRP    CE3  345   8.974   1.161   2.303
    4TRP    HE3  346   8.953   1.137   2.199
    4TRP    CD2  347   8.991   1.297   2.345
    4TRP      C  348   8.882   1.532   1.914
    4TRP      O  349   8.855   1.458   1.820
    5PRO      N  350   8.937   1.651   1.896
    5PRO     CD  351   8.931   1.752   1.999
    5PRO    HD2  352   9.024   1.759   2.053
    5PRO    HD3  353   8.848   1.742   2.071
    5PRO     CG  354   8.911   1.884   1.919
    5PRO    HG2  355   8.944   1.973   1.974
    5PRO    HG3  356   8.804   1.897   1.900
    5PRO     CB  357   8.995   1.859   1.797
    5PRO    HB2  358   9.103   1.868   1.820
    5PRO    HB3  359   8.956   1.924   1.719
    5PRO     CA  360   8.968   1.713   1.768
    5PRO     HA  361   8.878   1.708   1.707
    5PRO      C  362   9.083   1.647   1.690
    5PRO      O  363   9.156   1.574   1.763
    6TRP      N  364   9.121   1.678   1.567
    6TRP      H  365   9.047   1.731   1.521
    6TRP     CA  366   9.245   1.630   1.495
    6TRP     HA  367   9.263   1.524   1.517
    6TRP     CB  368   9.214   1.640   1.340
    6TRP    HB2  369   9.179   1.741   1.320
    6TRP    HB3  370   9.300   1.625   1.274
    6TRP     CG  371   9.116   1.538   1.282
    6TRP    CD1  372   8.983   1.558   1.264
    6TRP    HD1  373   8.941   1.657   1.280
    6TRP    NE1  374   8.912   1.442   1.221
    6TRP    HE1  375   8.812   1.444   1.214
    6TRP    CE2  376   8.998   1.338   1.231
    6TRP    CZ2  377   8.984   1.200   1.211
    6TRP    HZ2  378   8.886   1.157   1.201
    6TRP    CH2  379   9.091   1.112   1.214
    6TRP    HH2  380   9.066   1.008   1.204
    6TRP    CZ3  381   9.221   1.153   1.245
    6TRP    HZ3  382   9.304   1.084   1.254
    6TRP    CE3  383   9.237   1.294   1.270
    6TRP    HE3  384   9.336   1.333   1.289
    6TRP    CD2  385   9.129   1.390   1.260
    6TRP      C  386   9.370   1.699   1.529
    6TRP      O  387   9.481   1.655   1.493
    7TRP      N  388   9.358   1.813   1.603
    7TRP      H  389   9.263   1.838   1.625
    7TRP     CA  390   9.470   1.904   1.631
    7TRP     HA  391   9.522   1.919   1.537
    7TRP     CB  392   9.414   2.034   1.689
    7TRP    HB2  393   9.416   2.031   1.798
    7TRP    HB3  394   9.488   2.110   1.668
    7TRP     CG  395   9.284   2.097   1.641
    7TRP    CD1  396   9.210   2.192   1.705
    7TRP    HD1  397   9.238   2.233   1.802
    7TRP    NE1  398   9.098   2.232   1.640
    7TRP    HE1  399   9.033   2.295   1.685
    7TRP    CE2  400   9.096   2.169   1.515
    7TRP    CZ2  401   9.007   2.183   1.411
    7TRP    HZ2  402   8.922   2.251   1.423
    7TRP    CH2  403   9.021   2.105   1.296
    7TRP    HH2  404   8.952   2.122   1.214
    7TRP    CZ3  405   9.129   2.016   1.287
    7TRP    HZ3  406   9.138   1.949   1.201
    7TRP    CE3  407   9.229   2.018   1.390
    7TRP    HE3  408   9.323   1.968   1.376
    7TRP    CD2  409   9.212   2.088   1.513
    7TRP      C  410   9.564   1.833   1.725
    7TRP      O  411   9.516   1.763   1.814
    8PRO      N  412   9.697   1.860   1.725
    8PRO     CD  413   9.767   1.964   1.651
    8PRO    HD2  414   9.721   2.062   1.667
    8PRO    HD3  415   9.767   1.934   1.546
    8PRO     CG  416   9.905   1.970   1.714
    8PRO    HG2  417   9.908   2.051   1.786
    8PRO    HG3  418   9.979   1.993   1.639
    8PRO     CB  419   9.928   1.830   1.776
    8PRO    HB2  420   9.985   1.840   1.869
    8PRO    HB3  421   9.965   1.760   1.699
    8PRO     CA  422   9.789   1.784   1.814
    8PRO     HA  423   9.788   1.678   1.792
    8PRO      C  424   9.766   1.806   1.962
    8PRO      O  425   9.782   1.922   2.012
    9TRP      N  426   9.728   1.695   2.030
    9TRP      H  427   9.713   1.611   1.980
    9TRP     CA  428   9.713   1.687   2.177
    9TRP     HA  429   9.777   1.757   2.231
    9TRP     CB  430   9.561   1.712   2.208
    9TRP    HB2  431   9.510   1.645   2.140
    9TRP    HB3  432   9.545   1.682   2.312
    9TRP     CG  433   9.504   1.852   2.176
    9TRP    CD1  434   9.405   1.893   2.091
    9TRP    HD1  435   9.340   1.829   2.035
    9TRP    NE1  436   9.388   2.031   2.090
    9TRP    HE1  437   9.321   2.086   2.039
    9TRP    CE2  438   9.490   2.093   2.161
    9TRP    CZ2  439   9.524   2.226   2.194
    9TRP    HZ2  440   9.466   2.307   2.154
    9TRP    CH2  441   9.618   2.250   2.292
    9TRP    HH2  442   9.631   2.354   2.318
    9TRP    CZ3  443   9.686   2.142   2.351
    9TRP    HZ3  444   9.761   2.169   2.424
    9TRP    CE3  445   9.658   2.007   2.316
    9TRP    HE3  446   9.705   1.928   2.371
    9TRP    CD2  447   9.561   1.982   2.217
    9TRP      C  448   9.753   1.547   2.226
    9TRP      O  449   9.696   1.447   2.188
   10ARG      N  450   9.850   1.541   2.316
   10ARG      H  451   9.906   1.626   2.326
   10ARG     CA  452   9.890   1.424   2.380
   10ARG     HA  453   9.891   1.343   2.308
   10ARG     CB  454  10.026   1.449   2.443
   10ARG    HB2  455  10.021   1.533   2.513
   10ARG    HB3  456  10.043   1.362   2.508
   10ARG     CG  457  10.142   1.469   2.349
   10ARG    HG2  458  10.143   1.377   2.290
   10ARG    HG3  459  10.126   1.543   2.272
   10ARG     CD  460  10.279   1.492   2.425
   10ARG    HD2  461  10.362   1.485   2.356
   10ARG    HD3  462  10.277   1.584   2.484
   10ARG     NE  463  10.308   1.375   2.514
   10ARG     HE  464  10.322   1.287   2.466
   10ARG     CZ  465  10.301   1.378   2.649
   10ARG    NH1  466  10.229   1.470   2.708
   10ARG   HH11  467  10.159   1.528   2.663
   10ARG   HH12  468  10.241   1.476   2.808
   10ARG    NH2  469  10.366   1.290   2.722
   10ARG   HH21  470  10.439   1.230   2.688
   10ARG   HH22  471  10.351   1.296   2.822
   10ARG      C  472   9.789   1.387   2.489
   10ARG      O  473   9.734   1.474   2.559
   11ARG      N  474   9.755   1.258   2.510
   11ARG      H  475   9.800   1.193   2.449
   11ARG     CA  476   9.666   1.199   2.612
   11ARG     HA  477   9.689   1.260   2.700
   11ARG     CB  478   9.510   1.217   2.578
   11ARG    HB2  479   9.451   1.155   2.646
   11ARG    HB3  480   9.482   1.322   2.586
   11ARG     CG  481   9.475   1.164   2.437
   11ARG    HG2  482   9.542   1.213   2.367
   11ARG    HG3  483   9.501   1.058   2.429
   11ARG     CD  484   9.325   1.198   2.391
   11ARG    HD2  485   9.269   1.121   2.441
   11ARG    HD3  486   9.301   1.300   2.420
   11ARG     NE  487   9.312   1.175   2.245
   11ARG     HE  488   9.325   1.084   2.201
   11ARG     CZ  489   9.308   1.271   2.156
   11ARG    NH1  490   9.323   1.401   2.169
   11ARG   HH11  491   9.331   1.448   2.259
   11ARG   HH12  492   9.342   1.456   2.087
   11ARG    NH2  493   9.297   1.236   2.031
   11ARG   HH21  494   9.310   1.139   2.009
   11ARG   HH22  495   9.259   1.297   1.959
   11ARG      C  496   9.710   1.058   2.641
   11ARG      O  497   9.751   0.992   2.544
   12LYS      N  498   9.683   1.004   2.760
   12LYS      H  499   9.648   1.070   2.828
   12LYS     CA  500   9.706   0.862   2.798
   12LYS     HA  501   9.814   0.861   2.800
   12LYS     CB  502   9.644   0.844   2.940
   12LYS    HB2  503   9.656   0.931   3.002
   12LYS    HB3  504   9.536   0.840   2.929
   12LYS     CG  505   9.695   0.733   3.024
   12LYS    HG2  506   9.692   0.639   2.969
   12LYS    HG3  507   9.797   0.757   3.057
   12LYS     CD  508   9.615   0.715   3.146
   12LYS    HD2  509   9.623   0.803   3.210
   12LYS    HD3  510   9.511   0.694   3.122
   12LYS     CE  511   9.670   0.585   3.218
   12LYS    HE2  512   9.668   0.502   3.148
   12LYS    HE3  513   9.773   0.584   3.254
   12LYS     NZ  514   9.584   0.544   3.333
   12LYS    HZ1  515   9.597   0.597   3.417
   12LYS    HZ2  516   9.485   0.540   3.312
   12LYS    HZ3  517   9.618   0.452   3.359
   12LYS      C  518   9.667   0.749   2.702
   12LYS      O  519   9.561   0.755   2.644
   13NHE      N  520   9.753   0.645   2.709
   13NHE    HN1  521   9.840   0.648   2.762
   13NHE    HN2  522   9.736   0.558   2.660
    1ILE      N  523   2.319   5.584   3.256
    1ILE     H1  524   2.375   5.665   3.275
    1ILE     H2  525   2.367   5.494   3.260
    1ILE     H3  526   2.263   5.586   3.340
    1ILE     CA  527   2.221   5.585   3.146
    1ILE     HA  528   2.149   5.507   3.166
    1ILE     CB  529   2.150   5.727   3.138
    1ILE     HB  530   2.114   5.770   3.231
    1ILE    CG2  531   2.257   5.823   3.084
    1ILE   HG21  532   2.250   5.835   2.976
    1ILE   HG22  533   2.254   5.923   3.128
    1ILE   HG23  534   2.357   5.785   3.103
    1ILE    CG1  535   2.016   5.727   3.058
    1ILE   HG12  536   1.955   5.640   3.083
    1ILE   HG13  537   2.037   5.726   2.952
    1ILE    CD1  538   1.928   5.851   3.087
    1ILE   HD11  539   1.974   5.944   3.054
    1ILE   HD12  540   1.843   5.847   3.019
    1ILE   HD13  541   1.892   5.862   3.189
    1ILE      C  542   2.282   5.536   3.017
    1ILE      O  543   2.399   5.560   2.995
    2LEU      N  544   2.202   5.468   2.934
    2LEU      H  545   2.106   5.458   2.962
    2LEU     CA  546   2.234   5.447   2.792
    2LEU     HA  547   2.335   5.481   2.764
    2LEU     CB  548   2.238   5.300   2.755
    2LEU    HB2  549   2.135   5.271   2.732
    2LEU    HB3  550   2.297   5.287   2.665
    2LEU     CG  551   2.289   5.200   2.859
    2LEU     HG  552   2.228   5.192   2.949
    2LEU    CD1  553   2.270   5.054   2.800
    2LEU   HD11  554   2.166   5.026   2.817
    2LEU   HD12  555   2.294   5.053   2.694
    2LEU   HD13  556   2.335   4.977   2.844
    2LEU    CD2  557   2.433   5.218   2.890
    2LEU   HD21  558   2.482   5.237   2.794
    2LEU   HD22  559   2.443   5.314   2.942
    2LEU   HD23  560   2.481   5.139   2.946
    2LEU      C  561   2.137   5.521   2.696
    2LEU      O  562   2.021   5.551   2.729
    3ARG      N  563   2.191   5.563   2.584
    3ARG      H  564   2.287   5.538   2.565
    3ARG     CA  565   2.122   5.649   2.484
    3ARG     HA  566   2.015   5.650   2.508
    3ARG     CB  567   2.168   5.798   2.489
    3ARG    HB2  568   2.093   5.854   2.433
    3ARG    HB3  569   2.153   5.828   2.593
    3ARG     CG  570   2.312   5.835   2.442
    3ARG    HG2  571   2.389   5.778   2.493
    3ARG    HG3  572   2.319   5.821   2.334
    3ARG     CD  573   2.348   5.982   2.459
    3ARG    HD2  574   2.425   6.005   2.385
    3ARG    HD3  575   2.265   6.043   2.421
    3ARG     NE  576   2.393   6.021   2.588
    3ARG     HE  577   2.490   6.003   2.605
    3ARG     CZ  578   2.323   6.092   2.678
    3ARG    NH1  579   2.211   6.155   2.649
    3ARG   HH11  580   2.155   6.129   2.571
    3ARG   HH12  581   2.163   6.214   2.713
    3ARG    NH2  582   2.379   6.103   2.801
    3ARG   HH21  583   2.470   6.066   2.824
    3ARG   HH22  584   2.331   6.164   2.868
    3ARG      C  585   2.138   5.598   2.342
    3ARG      O  586   2.227   5.521   2.310
    4TRP      N  587   2.035   5.623   2.260
    4TRP      H  588   1.964   5.689   2.288
    4TRP     CA  589   2.022   5.565   2.124
    4TRP     HA  590   2.121   5.531   2.089
    4TRP     CB  591   1.927   5.439   2.136
    4TRP    HB2  592   1.842   5.461   2.201
    4TRP    HB3  593   1.901   5.398   2.038
    4TRP     CG  594   1.989   5.322   2.207
    4TRP    CD1  595   2.076   5.236   2.152
    4TRP    HD1  596   2.115   5.238   2.051
    4TRP    NE1  597   2.100   5.135   2.240
    4TRP    HE1  598   2.169   5.063   2.220
    4TRP    CE2  599   2.033   5.152   2.357
    4TRP    CZ2  600   2.025   5.084   2.479
    4TRP    HZ2  601   2.073   4.991   2.505
    4TRP    CH2  602   1.952   5.141   2.583
    4TRP    HH2  603   1.939   5.093   2.678
    4TRP    CZ3  604   1.906   5.272   2.576
    4TRP    HZ3  605   1.849   5.310   2.660
    4TRP    CE3  606   1.910   5.347   2.455
    4TRP    HE3  607   1.869   5.449   2.448
    4TRP    CD2  608   1.971   5.286   2.341
    4TRP      C  609   1.959   5.672   2.019
    4TRP      O  610   1.907   5.774   2.063
    5PRO      N  611   1.957   5.641   1.890
    5PRO     CD  612   2.051   5.547   1.835
    5PRO    HD2  613   2.005   5.450   1.820
    5PRO    HD3  614   2.145   5.534   1.892
    5PRO     CG  615   2.085   5.607   1.695
    5PRO    HG2  616   2.120   5.532   1.624
    5PRO    HG3  617   2.166   5.680   1.708
    5PRO     CB  618   1.953   5.665   1.654
    5PRO    HB2  619   1.882   5.586   1.624
    5PRO    HB3  620   1.975   5.742   1.581
    5PRO     CA  621   1.901   5.723   1.784
    5PRO     HA  622   1.942   5.823   1.794
    5PRO      C  623   1.747   5.733   1.785
    5PRO      O  624   1.692   5.643   1.854
    6TRP      N  625   1.674   5.811   1.706
    6TRP      H  626   1.733   5.882   1.664
    6TRP     CA  627   1.523   5.808   1.690
    6TRP     HA  628   1.475   5.794   1.787
    6TRP     CB  629   1.482   5.952   1.639
    6TRP    HB2  630   1.542   5.975   1.551
    6TRP    HB3  631   1.378   5.962   1.606
    6TRP     CG  632   1.490   6.067   1.740
    6TRP    CD1  633   1.595   6.153   1.754
    6TRP    HD1  634   1.677   6.149   1.682
    6TRP    NE1  635   1.584   6.241   1.864
    6TRP    HE1  636   1.660   6.302   1.889
    6TRP    CE2  637   1.477   6.200   1.937
    6TRP    CZ2  638   1.421   6.242   2.059
    6TRP    HZ2  639   1.477   6.309   2.122
    6TRP    CH2  640   1.302   6.192   2.108
    6TRP    HH2  641   1.274   6.227   2.206
    6TRP    CZ3  642   1.231   6.090   2.044
    6TRP    HZ3  643   1.141   6.047   2.086
    6TRP    CE3  644   1.288   6.043   1.921
    6TRP    HE3  645   1.235   5.968   1.864
    6TRP    CD2  646   1.409   6.098   1.862
    6TRP      C  647   1.470   5.703   1.603
    6TRP      O  648   1.347   5.679   1.600
    7TRP      N  649   1.559   5.634   1.528
    7TRP      H  650   1.655   5.664   1.540
    7TRP     CA  651   1.522   5.538   1.424
    7TRP     HA  652   1.444   5.585   1.364
    7TRP     CB  653   1.647   5.504   1.342
    7TRP    HB2  654   1.693   5.413   1.380
    7TRP    HB3  655   1.610   5.471   1.245
    7TRP     CG  656   1.753   5.606   1.306
    7TRP    CD1  657   1.880   5.581   1.263
    7TRP    HD1  658   1.919   5.481   1.250
    7TRP    NE1  659   1.955   5.691   1.238
    7TRP    HE1  660   2.053   5.681   1.214
    7TRP    CE2  661   1.874   5.803   1.254
    7TRP    CZ2  662   1.903   5.937   1.232
    7TRP    HZ2  663   2.003   5.964   1.200
    7TRP    CH2  664   1.807   6.034   1.261
    7TRP    HH2  665   1.831   6.138   1.239
    7TRP    CZ3  666   1.680   5.994   1.307
    7TRP    HZ3  667   1.607   6.069   1.337
    7TRP    CE3  668   1.649   5.855   1.311
    7TRP    HE3  669   1.548   5.821   1.325
    7TRP    CD2  670   1.748   5.753   1.293
    7TRP      C  671   1.461   5.418   1.492
    7TRP      O  672   1.510   5.380   1.598
    8PRO      N  673   1.367   5.342   1.430
    8PRO     CD  674   1.321   5.352   1.292
    8PRO    HD2  675   1.405   5.351   1.222
    8PRO    HD3  676   1.262   5.443   1.284
    8PRO     CG  677   1.244   5.224   1.268
    8PRO    HG2  678   1.308   5.152   1.217
    8PRO    HG3  679   1.161   5.243   1.201
    8PRO     CB  680   1.196   5.177   1.408
    8PRO    HB2  681   1.197   5.069   1.413
    8PRO    HB3  682   1.103   5.230   1.435
    8PRO     CA  683   1.304   5.228   1.501
    8PRO     HA  684   1.250   5.261   1.590
    8PRO      C  685   1.398   5.115   1.536
    8PRO      O  686   1.456   5.050   1.444
    9TRP      N  687   1.413   5.094   1.669
    9TRP      H  688   1.367   5.154   1.733
    9TRP     CA  689   1.488   4.981   1.729
    9TRP     HA  690   1.491   4.893   1.665
    9TRP     CB  691   1.632   5.035   1.760
    9TRP    HB2  692   1.614   5.128   1.813
    9TRP    HB3  693   1.680   4.962   1.825
    9TRP     CG  694   1.721   5.075   1.639
    9TRP    CD1  695   1.777   5.194   1.603
    9TRP    HD1  696   1.777   5.284   1.661
    9TRP    NE1  697   1.847   5.186   1.484
    9TRP    HE1  698   1.900   5.258   1.437
    9TRP    CE2  699   1.825   5.064   1.422
    9TRP    CZ2  700   1.868   5.001   1.303
    9TRP    HZ2  701   1.929   5.055   1.234
    9TRP    CH2  702   1.850   4.865   1.287
    9TRP    HH2  703   1.894   4.823   1.198
    9TRP    CZ3  704   1.777   4.793   1.384
    9TRP    HZ3  705   1.763   4.688   1.362
    9TRP    CE3  706   1.728   4.855   1.502
    9TRP    HE3  707   1.683   4.794   1.578
    9TRP    CD2  708   1.748   4.993   1.520
    9TRP      C  709   1.421   4.937   1.860
    9TRP      O  710   1.407   5.012   1.954
   10ARG      N  711   1.383   4.810   1.867
   10ARG      H  712   1.379   4.761   1.778
   10ARG     CA  713   1.332   4.750   1.983
   10ARG     HA  714   1.265   4.820   2.031
   10ARG     CB  715   1.264   4.621   1.942
   10ARG    HB2  716   1.334   4.555   1.891
   10ARG    HB3  717   1.244   4.569   2.036
   10ARG     CG  718   1.138   4.633   1.859
   10ARG    HG2  719   1.072   4.693   1.923
   10ARG    HG3  720   1.146   4.696   1.772
   10ARG     CD  721   1.074   4.492   1.825
   10ARG    HD2  722   0.974   4.505   1.784
   10ARG    HD3  723   1.140   4.432   1.761
   10ARG     NE  724   1.042   4.418   1.951
   10ARG     HE  725   0.973   4.461   2.010
   10ARG     CZ  726   1.111   4.310   1.994
   10ARG    NH1  727   1.233   4.288   1.951
   10ARG   HH11  728   1.292   4.356   1.905
   10ARG   HH12  729   1.271   4.198   1.976
   10ARG    NH2  730   1.056   4.225   2.079
   10ARG   HH21  731   0.959   4.221   2.101
   10ARG   HH22  732   1.116   4.150   2.111
   10ARG      C  733   1.446   4.720   2.080
   10ARG      O  734   1.557   4.681   2.040
   11ARG      N  735   1.429   4.738   2.212
   11ARG      H  736   1.338   4.772   2.238
   11ARG     CA  737   1.520   4.710   2.324
   11ARG     HA  738   1.568   4.616   2.292
   11ARG     CB  739   1.635   4.821   2.341
   11ARG    HB2  740   1.687   4.805   2.437
   11ARG    HB3  741   1.705   4.816   2.258
   11ARG     CG  742   1.576   4.963   2.353
   11ARG    HG2  743   1.512   4.979   2.267
   11ARG    HG3  744   1.509   4.969   2.439
   11ARG     CD  745   1.688   5.079   2.350
   11ARG    HD2  746   1.723   5.078   2.452
   11ARG    HD3  747   1.763   5.054   2.275
   11ARG     NE  748   1.622   5.210   2.327
   11ARG     HE  749   1.555   5.251   2.391
   11ARG     CZ  750   1.625   5.273   2.212
   11ARG    NH1  751   1.673   5.237   2.095
   11ARG   HH11  752   1.727   5.153   2.080
   11ARG   HH12  753   1.644   5.288   2.014
   11ARG    NH2  754   1.563   5.388   2.206
   11ARG   HH21  755   1.502   5.410   2.282
   11ARG   HH22  756   1.585   5.459   2.138
   11ARG      C  757   1.441   4.680   2.449
   11ARG      O  758   1.336   4.747   2.464
   12LYS      N  759   1.493   4.602   2.544
   12LYS      H  760   1.578   4.557   2.517
   12LYS     CA  761   1.433   4.577   2.678
   12LYS     HA  762   1.348   4.517   2.649
   12LYS     CB  763   1.539   4.496   2.758
   12LYS    HB2  764   1.594   4.426   2.697
   12LYS    HB3  765   1.618   4.565   2.789
   12LYS     CG  766   1.491   4.413   2.871
   12LYS    HG2  767   1.429   4.472   2.939
   12LYS    HG3  768   1.436   4.327   2.832
   12LYS     CD  769   1.603   4.357   2.951
   12LYS    HD2  770   1.662   4.289   2.890
   12LYS    HD3  771   1.664   4.437   2.991
   12LYS     CE  772   1.538   4.285   3.076
   12LYS    HE2  773   1.472   4.354   3.128
   12LYS    HE3  774   1.472   4.199   3.059
   12LYS     NZ  775   1.640   4.242   3.175
   12LYS    HZ1  776   1.691   4.158   3.151
   12LYS    HZ2  777   1.707   4.313   3.200
   12LYS    HZ3  778   1.587   4.214   3.256
   12LYS      C  779   1.374   4.693   2.759
   12LYS      O  780   1.433   4.798   2.765
   13NHE      N  781   1.265   4.653   2.831
   13NHE    HN1  782   1.222   4.562   2.820
   13NHE    HN2  783   1.221   4.714   2.898
    1ILE      N  784   5.255   6.812   8.236
    1ILE     H1  785   5.159   6.817   8.266
    1ILE     H2  786   5.325   6.849   8.301
    1ILE     H3  787   5.267   6.712   8.242
    1ILE     CA  788   5.292   6.845   8.098
    1ILE     HA  789   5.388   6.799   8.078
    1ILE     CB  790   5.181   6.792   7.997
    1ILE     HB  791   5.147   6.689   8.012
    1ILE    CG2  792   5.059   6.883   8.019
    1ILE   HG21  793   5.057   6.965   7.948
    1ILE   HG22  794   4.963   6.831   8.013
    1ILE   HG23  795   5.062   6.929   8.117
    1ILE    CG1  796   5.229   6.780   7.850
    1ILE   HG12  797   5.329   6.738   7.844
    1ILE   HG13  798   5.229   6.878   7.804
    1ILE    CD1  799   5.138   6.689   7.763
    1ILE   HD11  800   5.038   6.729   7.752
    1ILE   HD12  801   5.173   6.697   7.661
    1ILE   HD13  802   5.133   6.584   7.792
    1ILE      C  803   5.327   6.992   8.083
    1ILE      O  804   5.268   7.073   8.152
    2LEU      N  805   5.422   7.023   7.994
    2LEU      H  806   5.460   6.947   7.941
    2LEU     CA  807   5.439   7.160   7.941
    2LEU     HA  808   5.377   7.235   7.992
    2LEU     CB  809   5.579   7.212   7.967
    2LEU    HB2  810   5.641   7.177   7.884
    2LEU    HB3  811   5.578   7.321   7.962
    2LEU     CG  812   5.652   7.171   8.094
    2LEU     HG  813   5.673   7.065   8.103
    2LEU    CD1  814   5.800   7.229   8.089
    2LEU   HD11  815   5.858   7.160   8.028
    2LEU   HD12  816   5.799   7.328   8.046
    2LEU   HD13  817   5.849   7.241   8.186
    2LEU    CD2  818   5.586   7.226   8.216
    2LEU   HD21  819   5.558   7.328   8.192
    2LEU   HD22  820   5.490   7.175   8.227
    2LEU   HD23  821   5.643   7.219   8.309
    2LEU      C  822   5.407   7.172   7.791
    2LEU      O  823   5.413   7.075   7.714
    3ARG      N  824   5.356   7.287   7.754
    3ARG      H  825   5.350   7.360   7.823
    3ARG     CA  826   5.303   7.317   7.618
    3ARG     HA  827   5.335   7.236   7.551
    3ARG     CB  828   5.147   7.318   7.612
    3ARG    HB2  829   5.121   7.313   7.506
    3ARG    HB3  830   5.117   7.221   7.653
    3ARG     CG  831   5.069   7.432   7.683
    3ARG    HG2  832   5.095   7.443   7.787
    3ARG    HG3  833   5.086   7.526   7.630
    3ARG     CD  834   4.917   7.418   7.676
    3ARG    HD2  835   4.875   7.519   7.686
    3ARG    HD3  836   4.888   7.394   7.574
    3ARG     NE  837   4.858   7.334   7.775
    3ARG     HE  838   4.843   7.378   7.863
    3ARG     CZ  839   4.809   7.211   7.754
    3ARG    NH1  840   4.786   7.162   7.633
    3ARG   HH11  841   4.834   7.197   7.552
    3ARG   HH12  842   4.742   7.074   7.616
    3ARG    NH2  843   4.773   7.142   7.865
    3ARG   HH21  844   4.777   7.180   7.957
    3ARG   HH22  845   4.726   7.052   7.849
    3ARG      C  846   5.354   7.448   7.562
    3ARG      O  847   5.401   7.536   7.634
    4TRP      N  848   5.369   7.452   7.429
    4TRP      H  849   5.327   7.380   7.372
    4TRP     CA  850   5.436   7.564   7.357
    4TRP     HA  851   5.439   7.653   7.422
    4TRP     CB  852   5.585   7.518   7.330
    4TRP    HB2  853   5.588   7.414   7.296
    4TRP    HB3  854   5.637   7.588   7.265
    4TRP     CG  855   5.671   7.512   7.452
    4TRP    CD1  856   5.728   7.618   7.511
    4TRP    HD1  857   5.719   7.722   7.481
    4TRP    NE1  858   5.810   7.575   7.610
    4TRP    HE1  859   5.858   7.640   7.672
    4TRP    CE2  860   5.809   7.439   7.623
    4TRP    CZ2  861   5.868   7.345   7.708
    4TRP    HZ2  862   5.940   7.365   7.787
    4TRP    CH2  863   5.831   7.212   7.696
    4TRP    HH2  864   5.875   7.134   7.756
    4TRP    CZ3  865   5.723   7.173   7.619
    4TRP    HZ3  866   5.701   7.066   7.613
    4TRP    CE3  867   5.658   7.262   7.529
    4TRP    HE3  868   5.576   7.230   7.464
    4TRP    CD2  869   5.703   7.398   7.527
    4TRP      C  870   5.361   7.598   7.217
    4TRP      O  871   5.279   7.518   7.173
    5PRO      N  872   5.398   7.705   7.149
    5PRO     CD  873   5.461   7.816   7.216
    5PRO    HD2  874   5.568   7.816   7.201
    5PRO    HD3  875   5.440   7.826   7.324
    5PRO     CG  876   5.401   7.941   7.143
    5PRO    HG2  877   5.466   8.029   7.150
    5PRO    HG3  878   5.306   7.966   7.190
    5PRO     CB  879   5.392   7.891   7.001
    5PRO    HB2  880   5.490   7.887   6.953
    5PRO    HB3  881   5.315   7.952   6.953
    5PRO     CA  882   5.346   7.748   7.021
    5PRO     HA  883   5.237   7.749   7.028
    5PRO      C  884   5.385   7.658   6.902
    5PRO      O  885   5.484   7.584   6.928
    6TRP      N  886   5.340   7.670   6.778
    6TRP      H  887   5.256   7.727   6.777
    6TRP     CA  888   5.391   7.597   6.655
    6TRP     HA  889   5.414   7.493   6.679
    6TRP     CB  890   5.272   7.595   6.551
    6TRP    HB2  891   5.236   7.697   6.539
    6TRP    HB3  892   5.298   7.561   6.451
    6TRP     CG  893   5.154   7.501   6.583
    6TRP    CD1  894   5.039   7.537   6.646
    6TRP    HD1  895   5.021   7.643   6.667
    6TRP    NE1  896   4.952   7.429   6.675
    6TRP    HE1  897   4.869   7.444   6.730
    6TRP    CE2  898   5.022   7.316   6.648
    6TRP    CZ2  899   4.993   7.179   6.665
    6TRP    HZ2  900   4.907   7.150   6.725
    6TRP    CH2  901   5.074   7.078   6.619
    6TRP    HH2  902   5.044   6.978   6.644
    6TRP    CZ3  903   5.198   7.104   6.557
    6TRP    HZ3  904   5.265   7.026   6.526
    6TRP    CE3  905   5.231   7.243   6.542
    6TRP    HE3  906   5.323   7.270   6.491
    6TRP    CD2  907   5.144   7.352   6.583
    6TRP      C  908   5.513   7.652   6.595
    6TRP      O  909   5.576   7.588   6.507
    7TRP      N  910   5.554   7.773   6.639
    7TRP      H  911   5.495   7.814   6.710
    7TRP     CA  912   5.663   7.851   6.578
    7TRP     HA  913   5.647   7.848   6.471
    7TRP     CB  914   5.661   7.993   6.635
    7TRP    HB2  915   5.730   8.001   6.718
    7TRP    HB3  916   5.709   8.055   6.560
    7TRP     CG  917   5.532   8.068   6.664
    7TRP    CD1  918   5.518   8.178   6.743
    7TRP    HD1  919   5.601   8.225   6.794
    7TRP    NE1  920   5.391   8.226   6.753
    7TRP    HE1  921   5.371   8.302   6.817
    7TRP    CE2  922   5.310   8.151   6.668
    7TRP    CZ2  923   5.176   8.166   6.638
    7TRP    HZ2  924   5.120   8.245   6.687
    7TRP    CH2  925   5.113   8.074   6.553
    7TRP    HH2  926   5.008   8.091   6.528
    7TRP    CZ3  927   5.188   7.971   6.496
    7TRP    HZ3  928   5.139   7.894   6.436
    7TRP    CE3  929   5.330   7.969   6.516
    7TRP    HE3  930   5.393   7.906   6.457
    7TRP    CD2  931   5.396   8.054   6.610
    7TRP      C  932   5.792   7.778   6.607
    7TRP      O  933   5.807   7.725   6.717
    8PRO      N  934   5.898   7.786   6.522
    8PRO     CD  935   5.911   7.870   6.404
    8PRO    HD2  936   5.889   7.974   6.427
    8PRO    HD3  937   5.845   7.829   6.327
    8PRO     CG  938   6.059   7.863   6.369
    8PRO    HG2  939   6.110   7.951   6.408
    8PRO    HG3  940   6.072   7.868   6.261
    8PRO     CB  941   6.110   7.729   6.428
    8PRO    HB2  942   6.212   7.741   6.463
    8PRO    HB3  943   6.088   7.647   6.357
    8PRO     CA  944   6.021   7.708   6.549
    8PRO     HA  945   6.003   7.601   6.550
    8PRO      C  946   6.096   7.749   6.674
    8PRO      O  947   6.145   7.866   6.683
    9TRP      N  948   6.104   7.652   6.769
    9TRP      H  949   6.058   7.566   6.754
    9TRP     CA  950   6.182   7.663   6.894
    9TRP     HA  951   6.269   7.729   6.885
    9TRP     CB  952   6.083   7.712   7.005
    9TRP    HB2  953   5.998   7.645   6.995
    9TRP    HB3  954   6.134   7.696   7.101
    9TRP     CG  955   6.025   7.854   6.991
    9TRP    CD1  956   5.897   7.899   6.977
    9TRP    HD1  957   5.808   7.839   6.984
    9TRP    NE1  958   5.888   8.037   6.963
    9TRP    HE1  959   5.806   8.095   6.954
    9TRP    CE2  960   6.015   8.091   6.946
    9TRP    CZ2  961   6.067   8.221   6.928
    9TRP    HZ2  962   6.001   8.305   6.918
    9TRP    CH2  963   6.203   8.243   6.944
    9TRP    HH2  964   6.234   8.346   6.938
    9TRP    CZ3  965   6.289   8.133   6.967
    9TRP    HZ3  966   6.393   8.158   6.974
    9TRP    CE3  967   6.238   8.001   6.980
    9TRP    HE3  968   6.306   7.922   7.008
    9TRP    CD2  969   6.101   7.978   6.966
    9TRP      C  970   6.238   7.524   6.932
    9TRP      O  971   6.166   7.430   6.954
   10ARG      N  972   6.370   7.515   6.944
   10ARG      H  973   6.423   7.592   6.904
   10ARG     CA  974   6.436   7.401   6.991
   10ARG     HA  975   6.388   7.313   6.948
   10ARG     CB  976   6.582   7.414   6.954
   10ARG    HB2  977   6.625   7.505   6.997
   10ARG    HB3  978   6.632   7.333   7.009
   10ARG     CG  979   6.616   7.407   6.807
   10ARG    HG2  980   6.576   7.310   6.776
   10ARG    HG3  981   6.559   7.474   6.743
   10ARG     CD  982   6.772   7.418   6.779
   10ARG    HD2  983   6.794   7.393   6.676
   10ARG    HD3  984   6.811   7.516   6.810
   10ARG     NE  985   6.845   7.309   6.851
   10ARG     HE  986   6.822   7.216   6.820
   10ARG     CZ  987   6.922   7.328   6.960
   10ARG    NH1  988   6.906   7.435   7.033
   10ARG   HH11  989   6.826   7.497   7.031
   10ARG   HH12  990   6.978   7.450   7.103
   10ARG    NH2  991   7.015   7.241   6.992
   10ARG   HH21  992   7.049   7.168   6.933
   10ARG   HH22  993   7.065   7.259   7.078
   10ARG      C  994   6.422   7.391   7.143
   10ARG      O  995   6.426   7.492   7.215
   11ARG      N  996   6.403   7.272   7.202
   11ARG      H  997   6.398   7.194   7.138
   11ARG     CA  998   6.393   7.237   7.345
   11ARG     HA  999   6.468   7.304   7.389
   11ARG     CB 1000   6.251   7.272   7.409
   11ARG    HB2 1001   6.243   7.227   7.509
   11ARG    HB3 1002   6.238   7.380   7.415
   11ARG     CG 1003   6.134   7.209   7.330
   11ARG    HG2 1004   6.145   7.241   7.227
   11ARG    HG3 1005   6.145   7.101   7.327
   11ARG     CD 1006   5.989   7.259   7.379
   11ARG    HD2 1007   5.973   7.197   7.465
   11ARG    HD3 1008   5.993   7.366   7.398
   11ARG     NE 1009   5.887   7.222   7.277
   11ARG     HE 1010   5.867   7.126   7.251
   11ARG     CZ 1011   5.834   7.307   7.193
   11ARG    NH1 1012   5.859   7.435   7.172
   11ARG   HH11 1013   5.923   7.490   7.229
   11ARG   HH12 1014   5.826   7.477   7.088
   11ARG    NH2 1015   5.746   7.261   7.109
   11ARG   HH21 1016   5.739   7.161   7.101
   11ARG   HH22 1017   5.675   7.319   7.065
   11ARG      C 1018   6.440   7.095   7.366
   11ARG      O 1019   6.409   7.014   7.276
   12LYS      N 1020   6.490   7.058   7.484
   12LYS      H 1021   6.507   7.135   7.546
   12LYS     CA 1022   6.526   6.919   7.524
   12LYS     HA 1023   6.611   6.903   7.460
   12LYS     CB 1024   6.563   6.926   7.675
   12LYS    HB2 1025   6.615   7.017   7.701
   12LYS    HB3 1026   6.471   6.936   7.732
   12LYS     CG 1027   6.651   6.819   7.728
   12LYS    HG2 1028   6.611   6.721   7.704
   12LYS    HG3 1029   6.752   6.832   7.689
   12LYS     CD 1030   6.663   6.826   7.875
   12LYS    HD2 1031   6.712   6.918   7.905
   12LYS    HD3 1032   6.565   6.817   7.922
   12LYS     CE 1033   6.745   6.698   7.921
   12LYS    HE2 1034   6.697   6.609   7.881
   12LYS    HE3 1035   6.848   6.687   7.886
   12LYS     NZ 1036   6.746   6.682   8.068
   12LYS    HZ1 1037   6.811   6.742   8.118
   12LYS    HZ2 1038   6.656   6.690   8.113
   12LYS    HZ3 1039   6.785   6.589   8.084
   12LYS      C 1040   6.431   6.804   7.492
   12LYS      O 1041   6.312   6.818   7.510
   13NHE      N 1042   6.498   6.690   7.463
   13NHE    HN1 1043   6.599   6.686   7.451
   13NHE    HN2 1044   6.451   6.601   7.451
    1ILE      N 1045   8.655   8.433   5.072
    1ILE     H1 1046   8.735   8.467   5.123
    1ILE     H2 1047   8.653   8.333   5.054
    1ILE     H3 1048   8.586   8.447   5.145
    1ILE     CA 1049   8.602   8.508   4.957
    1ILE     HA 1050   8.500   8.477   4.942
    1ILE     CB 1051   8.610   8.664   4.984
    1ILE     HB 1052   8.575   8.699   5.081
    1ILE    CG2 1053   8.760   8.699   4.977
    1ILE   HG21 1054   8.789   8.734   4.878
    1ILE   HG22 1055   8.792   8.774   5.050
    1ILE   HG23 1056   8.822   8.612   4.996
    1ILE    CG1 1057   8.519   8.751   4.893
    1ILE   HG12 1058   8.420   8.705   4.881
    1ILE   HG13 1059   8.565   8.760   4.795
    1ILE    CD1 1060   8.494   8.893   4.947
    1ILE   HD11 1061   8.585   8.952   4.951
    1ILE   HD12 1062   8.439   8.948   4.871
    1ILE   HD13 1063   8.442   8.900   5.042
    1ILE      C 1064   8.665   8.462   4.827
    1ILE      O 1065   8.781   8.425   4.829
    2LEU      N 1066   8.589   8.464   4.718
    2LEU      H 1067   8.496   8.500   4.729
    2LEU     CA 1068   8.644   8.460   4.582
    2LEU     HA 1069   8.753   8.441   4.579
    2LEU     CB 1070   8.589   8.343   4.502
    2LEU    HB2 1071   8.495   8.378   4.458
    2LEU    HB3 1072   8.657   8.320   4.420
    2LEU     CG 1073   8.558   8.213   4.574
    2LEU     HG 1074   8.479   8.219   4.649
    2LEU    CD1 1075   8.489   8.113   4.471
    2LEU   HD11 1076   8.384   8.141   4.465
    2LEU   HD12 1077   8.538   8.122   4.374
    2LEU   HD13 1078   8.496   8.007   4.496
    2LEU    CD2 1079   8.679   8.146   4.627
    2LEU   HD21 1080   8.755   8.156   4.550
    2LEU   HD22 1081   8.718   8.209   4.708
    2LEU   HD23 1082   8.668   8.044   4.661
    2LEU      C 1083   8.622   8.591   4.503
    2LEU      O 1084   8.530   8.670   4.529
    3ARG      N 1085   8.718   8.621   4.417
    3ARG      H 1086   8.792   8.553   4.404
    3ARG     CA 1087   8.726   8.748   4.341
    3ARG     HA 1088   8.630   8.800   4.351
    3ARG     CB 1089   8.832   8.847   4.398
    3ARG    HB2 1090   8.811   8.944   4.353
    3ARG    HB3 1091   8.806   8.858   4.504
    3ARG     CG 1092   8.984   8.812   4.384
    3ARG    HG2 1093   9.009   8.715   4.424
    3ARG    HG3 1094   9.012   8.819   4.279
    3ARG     CD 1095   9.078   8.912   4.450
    3ARG    HD2 1096   9.174   8.905   4.397
    3ARG    HD3 1097   9.047   9.013   4.423
    3ARG     NE 1098   9.099   8.894   4.590
    3ARG     HE 1099   9.169   8.825   4.612
    3ARG     CZ 1100   9.049   8.970   4.688
    3ARG    NH1 1101   8.992   9.087   4.666
    3ARG   HH11 1102   8.953   9.111   4.577
    3ARG   HH12 1103   8.962   9.148   4.739
    3ARG    NH2 1104   9.069   8.925   4.814
    3ARG   HH21 1105   9.122   8.843   4.836
    3ARG   HH22 1106   9.039   8.987   4.890
    3ARG      C 1107   8.754   8.728   4.193
    3ARG      O 1108   8.802   8.623   4.151
    4TRP      N 1109   8.700   8.818   4.111
    4TRP      H 1110   8.664   8.904   4.149
    4TRP     CA 1111   8.700   8.805   3.963
    4TRP     HA 1112   8.776   8.732   3.932
    4TRP     CB 1113   8.557   8.747   3.923
    4TRP    HB2 1114   8.478   8.797   3.980
    4TRP    HB3 1115   8.543   8.747   3.815
    4TRP     CG 1116   8.536   8.604   3.961
    4TRP    CD1 1117   8.584   8.498   3.893
    4TRP    HD1 1118   8.646   8.501   3.804
    4TRP    NE1 1119   8.535   8.384   3.948
    4TRP    HE1 1120   8.564   8.292   3.915
    4TRP    CE2 1121   8.454   8.409   4.055
    4TRP    CZ2 1122   8.383   8.332   4.148
    4TRP    HZ2 1123   8.374   8.224   4.148
    4TRP    CH2 1124   8.320   8.396   4.254
    4TRP    HH2 1125   8.261   8.344   4.327
    4TRP    CZ3 1126   8.344   8.530   4.282
    4TRP    HZ3 1127   8.291   8.574   4.366
    4TRP    CE3 1128   8.414   8.615   4.193
    4TRP    HE3 1129   8.429   8.722   4.212
    4TRP    CD2 1130   8.469   8.555   4.074
    4TRP      C 1131   8.724   8.948   3.890
    4TRP      O 1132   8.715   9.051   3.957
    5PRO      N 1133   8.743   8.950   3.759
    5PRO     CD 1134   8.792   8.834   3.690
    5PRO    HD2 1135   8.713   8.781   3.639
    5PRO    HD3 1136   8.850   8.763   3.750
    5PRO     CG 1137   8.887   8.895   3.581
    5PRO    HG2 1138   8.901   8.829   3.495
    5PRO    HG3 1139   8.986   8.910   3.626
    5PRO     CB 1140   8.813   9.020   3.543
    5PRO    HB2 1141   8.725   8.998   3.481
    5PRO    HB3 1142   8.888   9.088   3.502
    5PRO     CA 1143   8.761   9.069   3.677
    5PRO     HA 1144   8.840   9.128   3.724
    5PRO      C 1145   8.636   9.157   3.662
    5PRO      O 1146   8.530   9.096   3.692
    6TRP      N 1147   8.632   9.275   3.602
    6TRP      H 1148   8.726   9.312   3.593
    6TRP     CA 1149   8.508   9.356   3.568
    6TRP     HA 1150   8.435   9.349   3.649
    6TRP     CB 1151   8.553   9.507   3.559
    6TRP    HB2 1152   8.639   9.512   3.492
    6TRP    HB3 1153   8.479   9.576   3.519
    6TRP     CG 1154   8.587   9.577   3.692
    6TRP    CD1 1155   8.711   9.590   3.745
    6TRP    HD1 1156   8.798   9.559   3.686
    6TRP    NE1 1157   8.713   9.647   3.875
    6TRP    HE1 1158   8.799   9.652   3.927
    6TRP    CE2 1159   8.584   9.653   3.917
    6TRP    CZ2 1160   8.524   9.692   4.038
    6TRP    HZ2 1161   8.585   9.706   4.126
    6TRP    CH2 1162   8.387   9.703   4.054
    6TRP    HH2 1163   8.354   9.726   4.153
    6TRP    CZ3 1164   8.297   9.669   3.952
    6TRP    HZ3 1165   8.190   9.671   3.967
    6TRP    CE3 1166   8.356   9.625   3.829
    6TRP    HE3 1167   8.292   9.602   3.745
    6TRP    CD2 1168   8.500   9.620   3.806
    6TRP      C 1169   8.437   9.314   3.446
    6TRP      O 1170   8.323   9.358   3.420
    7TRP      N 1171   8.500   9.226   3.366
    7TRP      H 1172   8.592   9.198   3.398
    7TRP     CA 1173   8.453   9.187   3.232
    7TRP     HA 1174   8.425   9.279   3.182
    7TRP     CB 1175   8.564   9.110   3.160
    7TRP    HB2 1176   8.550   9.004   3.173
    7TRP    HB3 1177   8.544   9.123   3.054
    7TRP     CG 1178   8.711   9.147   3.172
    7TRP    CD1 1179   8.817   9.069   3.140
    7TRP    HD1 1180   8.807   8.968   3.101
    7TRP    NE1 1181   8.939   9.126   3.160
    7TRP    HE1 1182   9.023   9.071   3.147
    7TRP    CE2 1183   8.918   9.258   3.200
    7TRP    CZ2 1184   9.011   9.358   3.225
    7TRP    HZ2 1185   9.116   9.335   3.216
    7TRP    CH2 1186   8.967   9.483   3.270
    7TRP    HH2 1187   9.042   9.561   3.285
    7TRP    CZ3 1188   8.830   9.506   3.285
    7TRP    HZ3 1189   8.795   9.600   3.328
    7TRP    CE3 1190   8.737   9.406   3.241
    7TRP    HE3 1191   8.633   9.428   3.231
    7TRP    CD2 1192   8.778   9.274   3.205
    7TRP      C 1193   8.327   9.106   3.251
    7TRP      O 1194   8.322   9.026   3.345
    8PRO      N 1195   8.229   9.104   3.157
    8PRO     CD 1196   8.232   9.165   3.025
    8PRO    HD2 1197   8.322   9.134   2.969
    8PRO    HD3 1198   8.226   9.273   3.038
    8PRO     CG 1199   8.114   9.104   2.952
    8PRO    HG2 1200   8.148   9.021   2.889
    8PRO    HG3 1201   8.070   9.176   2.884
    8PRO     CB 1202   8.014   9.061   3.063
    8PRO    HB2 1203   7.963   8.970   3.034
    8PRO    HB3 1204   7.953   9.148   3.093
    8PRO     CA 1205   8.104   9.028   3.180
    8PRO     HA 1206   8.050   9.065   3.267
    8PRO      C 1207   8.121   8.878   3.190
    8PRO      O 1208   8.165   8.813   3.090
    9TRP      N 1209   8.088   8.826   3.310
    9TRP      H 1210   8.060   8.886   3.384
    9TRP     CA 1211   8.083   8.681   3.341
    9TRP     HA 1212   8.062   8.619   3.254
    9TRP     CB 1213   8.222   8.644   3.405
    9TRP    HB2 1214   8.235   8.720   3.482
    9TRP    HB3 1215   8.210   8.545   3.450
    9TRP     CG 1216   8.347   8.655   3.316
    9TRP    CD1 1217   8.460   8.732   3.326
    9TRP    HD1 1218   8.486   8.795   3.408
    9TRP    NE1 1219   8.547   8.714   3.220
    9TRP    HE1 1220   8.638   8.755   3.205
    9TRP    CE2 1221   8.488   8.637   3.120
    9TRP    CZ2 1222   8.527   8.586   2.995
    9TRP    HZ2 1223   8.623   8.614   2.954
    9TRP    CH2 1224   8.453   8.487   2.934
    9TRP    HH2 1225   8.495   8.448   2.843
    9TRP    CZ3 1226   8.332   8.445   2.994
    9TRP    HZ3 1227   8.278   8.370   2.939
    9TRP    CE3 1228   8.288   8.498   3.118
    9TRP    HE3 1229   8.201   8.455   3.165
    9TRP    CD2 1230   8.364   8.598   3.181
    9TRP      C 1231   7.971   8.652   3.442
    9TRP      O 1232   7.969   8.703   3.552
   10ARG      N 1233   7.878   8.566   3.404
   10ARG      H 1234   7.876   8.545   3.304
   10ARG     CA 1235   7.776   8.519   3.488
   10ARG     HA 1236   7.739   8.602   3.547
   10ARG     CB 1237   7.670   8.456   3.400
   10ARG    HB2 1238   7.712   8.375   3.340
   10ARG    HB3 1239   7.603   8.403   3.470
   10ARG     CG 1240   7.591   8.548   3.310
   10ARG    HG2 1241   7.546   8.619   3.381
   10ARG    HG3 1242   7.650   8.614   3.248
   10ARG     CD 1243   7.480   8.472   3.226
   10ARG    HD2 1244   7.414   8.543   3.179
   10ARG    HD3 1245   7.526   8.401   3.155
   10ARG     NE 1246   7.386   8.401   3.317
   10ARG     HE 1247   7.332   8.461   3.377
   10ARG     CZ 1248   7.382   8.267   3.332
   10ARG    NH1 1249   7.486   8.194   3.301
   10ARG   HH11 1250   7.580   8.229   3.286
   10ARG   HH12 1251   7.470   8.094   3.301
   10ARG    NH2 1252   7.274   8.207   3.379
   10ARG   HH21 1253   7.183   8.251   3.386
   10ARG   HH22 1254   7.280   8.108   3.393
   10ARG      C 1255   7.832   8.415   3.584
   10ARG      O 1256   7.919   8.333   3.548
   11ARG      N 1257   7.790   8.411   3.712
   11ARG      H 1258   7.723   8.482   3.736
   11ARG     CA 1259   7.825   8.317   3.820
   11ARG     HA 1260   7.830   8.221   3.766
   11ARG     CB 1261   7.968   8.346   3.886
   11ARG    HB2 1262   7.979   8.286   3.977
   11ARG    HB3 1263   8.047   8.322   3.815
   11ARG     CG 1264   7.982   8.492   3.934
   11ARG    HG2 1265   7.958   8.555   3.850
   11ARG    HG3 1266   7.905   8.514   4.008
   11ARG     CD 1267   8.131   8.530   3.982
   11ARG    HD2 1268   8.133   8.490   4.082
   11ARG    HD3 1269   8.202   8.486   3.912
   11ARG     NE 1270   8.143   8.677   3.992
   11ARG     HE 1271   8.087   8.733   4.057
   11ARG     CZ 1272   8.205   8.752   3.904
   11ARG    NH1 1273   8.261   8.721   3.789
   11ARG   HH11 1274   8.270   8.626   3.755
   11ARG   HH12 1275   8.281   8.795   3.725
   11ARG    NH2 1276   8.207   8.881   3.926
   11ARG   HH21 1277   8.146   8.915   3.998
   11ARG   HH22 1278   8.277   8.942   3.888
   11ARG      C 1279   7.710   8.308   3.918
   11ARG      O 1280   7.649   8.415   3.940
   12LYS      N 1281   7.693   8.197   3.990
   12LYS      H 1282   7.751   8.121   3.961
   12LYS     CA 1283   7.594   8.180   4.101
   12LYS     HA 1284   7.503   8.180   4.043
   12LYS     CB 1285   7.625   8.041   4.164
   12LYS    HB2 1286   7.655   7.967   4.091
   12LYS    HB3 1287   7.715   8.051   4.225
   12LYS     CG 1288   7.515   7.974   4.238
   12LYS    HG2 1289   7.472   8.041   4.313
   12LYS    HG3 1290   7.439   7.940   4.167
   12LYS     CD 1291   7.562   7.854   4.310
   12LYS    HD2 1292   7.597   7.778   4.239
   12LYS    HD3 1293   7.641   7.879   4.381
   12LYS     CE 1294   7.440   7.801   4.397
   12LYS    HE2 1295   7.404   7.883   4.459
   12LYS    HE3 1296   7.350   7.768   4.345
   12LYS     NZ 1297   7.481   7.693   4.489
   12LYS    HZ1 1298   7.490   7.601   4.447
   12LYS    HZ2 1299   7.563   7.711   4.544
   12LYS    HZ3 1300   7.400   7.680   4.551
   12LYS      C 1301   7.576   8.290   4.205
   12LYS      O 1302   7.674   8.345   4.251
   13NHE      N 1303   7.447   8.299   4.247
   13NHE    HN1 1304   7.371   8.248   4.203
   13NHE    HN2 1305   7.420   8.359   4.323
    1ILE      N 1306  10.162   6.426   6.297
    1ILE     H1 1307  10.242   6.449   6.353
    1ILE     H2 1308  10.106   6.505   6.265
    1ILE     H3 1309  10.211   6.395   6.214
    1ILE     CA 1310  10.076   6.313   6.334
    1ILE     HA 1311  10.021   6.284   6.245
    1ILE     CB 1312  10.163   6.192   6.388
    1ILE     HB 1313  10.251   6.165   6.330
    1ILE    CG2 1314  10.214   6.238   6.526
    1ILE   HG21 1315  10.150   6.202   6.606
    1ILE   HG22 1316  10.316   6.206   6.548
    1ILE   HG23 1317  10.214   6.346   6.534
    1ILE    CG1 1318  10.091   6.054   6.387
    1ILE   HG12 1319  10.034   6.040   6.295
    1ILE   HG13 1320  10.023   6.049   6.471
    1ILE    CD1 1321  10.187   5.934   6.397
    1ILE   HD11 1322  10.241   5.932   6.492
    1ILE   HD12 1323  10.126   5.845   6.407
    1ILE   HD13 1324  10.258   5.922   6.316
    1ILE      C 1325   9.963   6.356   6.424
    1ILE      O 1326   9.983   6.447   6.503
    2LEU      N 1327   9.846   6.293   6.411
    2LEU      H 1328   9.843   6.218   6.345
    2LEU     CA 1329   9.741   6.296   6.515
    2LEU     HA 1330   9.763   6.366   6.597
    2LEU     CB 1331   9.610   6.349   6.461
    2LEU    HB2 1332   9.558   6.264   6.418
    2LEU    HB3 1333   9.549   6.385   6.544
    2LEU     CG 1334   9.613   6.457   6.354
    2LEU     HG 1335   9.658   6.427   6.259
    2LEU    CD1 1336   9.464   6.484   6.306
    2LEU   HD11 1337   9.439   6.406   6.234
    2LEU   HD12 1338   9.396   6.481   6.391
    2LEU   HD13 1339   9.446   6.582   6.260
    2LEU    CD2 1340   9.668   6.586   6.404
    2LEU   HD21 1341   9.626   6.600   6.503
    2LEU   HD22 1342   9.774   6.570   6.424
    2LEU   HD23 1343   9.654   6.673   6.341
    2LEU      C 1344   9.717   6.159   6.582
    2LEU      O 1345   9.744   6.052   6.526
    3ARG      N 1346   9.682   6.164   6.709
    3ARG      H 1347   9.666   6.256   6.749
    3ARG     CA 1348   9.668   6.046   6.798
    3ARG     HA 1349   9.669   5.957   6.735
    3ARG     CB 1350   9.788   6.029   6.897
    3ARG    HB2 1351   9.781   5.928   6.936
    3ARG    HB3 1352   9.877   6.029   6.833
    3ARG     CG 1353   9.806   6.132   7.013
    3ARG    HG2 1354   9.809   6.235   6.978
    3ARG    HG3 1355   9.725   6.120   7.085
    3ARG     CD 1356   9.930   6.110   7.098
    3ARG    HD2 1357   9.909   6.154   7.197
    3ARG    HD3 1358   9.937   6.005   7.124
    3ARG     NE 1359  10.051   6.166   7.047
    3ARG     HE 1360  10.063   6.263   7.067
    3ARG     CZ 1361  10.152   6.097   6.992
    3ARG    NH1 1362  10.163   5.966   7.000
    3ARG   HH11 1363  10.083   5.907   7.017
    3ARG   HH12 1364  10.241   5.914   6.967
    3ARG    NH2 1365  10.250   6.171   6.935
    3ARG   HH21 1366  10.252   6.271   6.937
    3ARG   HH22 1367  10.332   6.120   6.901
    3ARG      C 1368   9.539   6.047   6.878
    3ARG      O 1369   9.475   6.149   6.896
    4TRP      N 1370   9.488   5.927   6.905
    4TRP      H 1371   9.545   5.844   6.892
    4TRP     CA 1372   9.353   5.907   6.965
    4TRP     HA 1373   9.320   5.999   7.013
    4TRP     CB 1374   9.254   5.875   6.845
    4TRP    HB2 1375   9.300   5.804   6.775
    4TRP    HB3 1376   9.156   5.844   6.881
    4TRP     CG 1377   9.225   5.991   6.757
    4TRP    CD1 1378   9.138   6.089   6.785
    4TRP    HD1 1379   9.079   6.100   6.875
    4TRP    NE1 1380   9.127   6.171   6.677
    4TRP    HE1 1381   9.070   6.256   6.680
    4TRP    CE2 1382   9.207   6.132   6.574
    4TRP    CZ2 1383   9.237   6.180   6.446
    4TRP    HZ2 1384   9.192   6.265   6.397
    4TRP    CH2 1385   9.336   6.117   6.373
    4TRP    HH2 1386   9.362   6.146   6.272
    4TRP    CZ3 1387   9.421   6.023   6.430
    4TRP    HZ3 1388   9.496   5.977   6.367
    4TRP    CE3 1389   9.396   5.968   6.560
    4TRP    HE3 1390   9.460   5.891   6.603
    4TRP    CD2 1391   9.285   6.021   6.633
    4TRP      C 1392   9.353   5.784   7.072
    4TRP      O 1393   9.449   5.707   7.074
    5PRO      N 1394   9.245   5.764   7.145
    5PRO     CD 1395   9.153   5.872   7.172
    5PRO    HD2 1396   9.065   5.865   7.110
    5PRO    HD3 1397   9.195   5.974   7.165
    5PRO     CG 1398   9.109   5.847   7.320
    5PRO    HG2 1399   9.012   5.891   7.344
    5PRO    HG3 1400   9.183   5.893   7.386
    5PRO     CB 1401   9.105   5.696   7.325
    5PRO    HB2 1402   9.016   5.657   7.272
    5PRO    HB3 1403   9.117   5.669   7.429
    5PRO     CA 1404   9.226   5.657   7.242
    5PRO     HA 1405   9.312   5.657   7.308
    5PRO      C 1406   9.211   5.517   7.181
    5PRO      O 1407   9.182   5.520   7.058
    6TRP      N 1408   9.204   5.404   7.249
    6TRP      H 1409   9.238   5.418   7.343
    6TRP     CA 1410   9.170   5.266   7.194
    6TRP     HA 1411   9.216   5.252   7.096
    6TRP     CB 1412   9.235   5.161   7.293
    6TRP    HB2 1413   9.202   5.185   7.394
    6TRP    HB3 1414   9.205   5.057   7.276
    6TRP     CG 1415   9.388   5.147   7.288
    6TRP    CD1 1416   9.475   5.210   7.371
    6TRP    HD1 1417   9.437   5.268   7.455
    6TRP    NE1 1418   9.612   5.191   7.336
    6TRP    HE1 1419   9.684   5.241   7.385
    6TRP    CE2 1420   9.613   5.129   7.216
    6TRP    CZ2 1421   9.716   5.091   7.128
    6TRP    HZ2 1422   9.816   5.129   7.144
    6TRP    CH2 1423   9.695   5.016   7.014
    6TRP    HH2 1424   9.782   5.000   6.952
    6TRP    CZ3 1425   9.567   4.978   6.973
    6TRP    HZ3 1426   9.549   4.925   6.881
    6TRP    CE3 1427   9.460   5.018   7.059
    6TRP    HE3 1428   9.358   4.988   7.035
    6TRP    CD2 1429   9.479   5.091   7.183
    6TRP      C 1430   9.027   5.240   7.174
    6TRP      O 1431   8.988   5.139   7.110
    7TRP      N 1432   8.940   5.329   7.228
    7TRP      H 1433   8.984   5.405   7.277
    7TRP     CA 1434   8.794   5.309   7.233
    7TRP     HA 1435   8.778   5.208   7.268
    7TRP     CB 1436   8.733   5.415   7.326
    7TRP    HB2 1437   8.699   5.500   7.268
    7TRP    HB3 1438   8.640   5.372   7.361
    7TRP     CG 1439   8.801   5.460   7.454
    7TRP    CD1 1440   8.773   5.573   7.525
    7TRP    HD1 1441   8.697   5.644   7.495
    7TRP    NE1 1442   8.849   5.591   7.637
    7TRP    HE1 1443   8.840   5.677   7.690
    7TRP    CE2 1444   8.929   5.479   7.652
    7TRP    CZ2 1445   9.017   5.447   7.755
    7TRP    HZ2 1446   9.030   5.518   7.836
    7TRP    CH2 1447   9.093   5.330   7.747
    7TRP    HH2 1448   9.158   5.306   7.831
    7TRP    CZ3 1449   9.075   5.244   7.638
    7TRP    HZ3 1450   9.139   5.157   7.626
    7TRP    CE3 1451   8.971   5.272   7.544
    7TRP    HE3 1452   8.940   5.198   7.472
    7TRP    CD2 1453   8.899   5.396   7.542
    7TRP      C 1454   8.742   5.318   7.092
    7TRP      O 1455   8.792   5.401   7.016
    8PRO      N 1456   8.631   5.250   7.053
    8PRO     CD 1457   8.541   5.173   7.137
    8PRO    HD2 1458   8.506   5.232   7.223
    8PRO    HD3 1459   8.593   5.082   7.168
    8PRO     CG 1460   8.419   5.148   7.050
    8PRO    HG2 1461   8.342   5.222   7.074
    8PRO    HG3 1462   8.376   5.052   7.072
    8PRO     CB 1463   8.470   5.156   6.904
    8PRO    HB2 1464   8.394   5.201   6.841
    8PRO    HB3 1465   8.513   5.059   6.874
    8PRO     CA 1466   8.586   5.254   6.912
    8PRO     HA 1467   8.660   5.214   6.844
    8PRO      C 1468   8.540   5.391   6.865
    8PRO      O 1469   8.440   5.447   6.919
    9TRP      N 1470   8.615   5.443   6.764
    9TRP      H 1471   8.695   5.393   6.733
    9TRP     CA 1472   8.583   5.568   6.692
    9TRP     HA 1473   8.477   5.591   6.689
    9TRP     CB 1474   8.665   5.682   6.762
    9TRP    HB2 1475   8.765   5.642   6.768
    9TRP    HB3 1476   8.661   5.769   6.695
    9TRP     CG 1477   8.627   5.718   6.908
    9TRP    CD1 1478   8.699   5.713   7.023
    9TRP    HD1 1479   8.803   5.691   7.032
    9TRP    NE1 1480   8.625   5.750   7.135
    9TRP    HE1 1481   8.654   5.758   7.231
    9TRP    CE2 1482   8.491   5.764   7.101
    9TRP    CZ2 1483   8.372   5.800   7.169
    9TRP    HZ2 1484   8.375   5.817   7.275
    9TRP    CH2 1485   8.259   5.833   7.097
    9TRP    HH2 1486   8.176   5.867   7.156
    9TRP    CZ3 1487   8.260   5.819   6.957
    9TRP    HZ3 1488   8.166   5.842   6.909
    9TRP    CE3 1489   8.376   5.778   6.887
    9TRP    HE3 1490   8.375   5.780   6.779
    9TRP    CD2 1491   8.492   5.747   6.959
    9TRP      C 1492   8.628   5.556   6.545
    9TRP      O 1493   8.743   5.536   6.514
   10ARG      N 1494   8.533   5.573   6.454
   10ARG      H 1495   8.437   5.568   6.488
   10ARG     CA 1496   8.558   5.578   6.316
   10ARG     HA 1497   8.632   5.502   6.291
   10ARG     CB 1498   8.426   5.559   6.244
   10ARG    HB2 1499   8.355   5.636   6.274
   10ARG    HB3 1500   8.448   5.583   6.139
   10ARG     CG 1501   8.361   5.423   6.255
   10ARG    HG2 1502   8.438   5.355   6.215
   10ARG    HG3 1503   8.351   5.385   6.356
   10ARG     CD 1504   8.226   5.413   6.174
   10ARG    HD2 1505   8.194   5.309   6.167
   10ARG    HD3 1506   8.150   5.481   6.215
   10ARG     NE 1507   8.250   5.443   6.029
   10ARG     HE 1508   8.311   5.378   5.982
   10ARG     CZ 1509   8.210   5.557   5.968
   10ARG    NH1 1510   8.184   5.664   6.039
   10ARG   HH11 1511   8.212   5.679   6.135
   10ARG   HH12 1512   8.140   5.739   5.988
   10ARG    NH2 1513   8.195   5.561   5.837
   10ARG   HH21 1514   8.193   5.481   5.777
   10ARG   HH22 1515   8.171   5.651   5.798
   10ARG      C 1516   8.618   5.714   6.279
   10ARG      O 1517   8.579   5.819   6.334
   11ARG      N 1518   8.716   5.723   6.187
   11ARG      H 1519   8.745   5.634   6.149
   11ARG     CA 1520   8.783   5.841   6.131
   11ARG     HA 1521   8.700   5.912   6.123
   11ARG     CB 1522   8.893   5.904   6.230
   11ARG    HB2 1523   8.952   5.978   6.176
   11ARG    HB3 1524   8.845   5.949   6.317
   11ARG     CG 1525   8.997   5.799   6.276
   11ARG    HG2 1526   8.942   5.716   6.318
   11ARG    HG3 1527   9.048   5.756   6.189
   11ARG     CD 1528   9.097   5.852   6.390
   11ARG    HD2 1529   9.168   5.908   6.332
   11ARG    HD3 1530   9.039   5.910   6.462
   11ARG     NE 1531   9.167   5.737   6.451
   11ARG     HE 1532   9.230   5.676   6.399
   11ARG     CZ 1533   9.138   5.687   6.569
   11ARG    NH1 1534   9.042   5.718   6.653
   11ARG   HH11 1535   8.977   5.795   6.640
   11ARG   HH12 1536   9.020   5.653   6.727
   11ARG    NH2 1537   9.208   5.586   6.610
   11ARG   HH21 1538   9.267   5.541   6.542
   11ARG   HH22 1539   9.219   5.562   6.708
   11ARG      C 1540   8.832   5.811   5.991
   11ARG      O 1541   8.876   5.695   5.973
   12LYS      N 1542   8.846   5.910   5.903
   12LYS      H 1543   8.808   5.997   5.934
   12LYS     CA 1544   8.907   5.898   5.768
   12LYS     HA 1545   8.831   5.839   5.719
   12LYS     CB 1546   8.917   6.042   5.712
   12LYS    HB2 1547   8.833   6.104   5.741
   12LYS    HB3 1548   9.000   6.093   5.762
   12LYS     CG 1549   8.924   6.058   5.564
   12LYS    HG2 1550   9.003   5.996   5.522
   12LYS    HG3 1551   8.826   6.034   5.521
   12LYS     CD 1552   8.952   6.198   5.525
   12LYS    HD2 1553   8.871   6.263   5.556
   12LYS    HD3 1554   9.047   6.231   5.567
   12LYS     CE 1555   8.973   6.198   5.368
   12LYS    HE2 1556   9.048   6.124   5.341
   12LYS    HE3 1557   8.888   6.169   5.304
   12LYS     NZ 1558   9.022   6.329   5.318
   12LYS    HZ1 1559   8.952   6.401   5.309
   12LYS    HZ2 1560   9.101   6.366   5.368
   12LYS    HZ3 1561   9.047   6.311   5.221
   12LYS      C 1562   9.037   5.818   5.749
   12LYS      O 1563   9.127   5.831   5.829
   13NHE      N 1564   9.039   5.754   5.630
   13NHE    HN1 1565   8.959   5.749   5.568
   13NHE    HN2 1566   9.122   5.706   5.596
    1ILE      N 1567   4.219   5.764   4.064
    1ILE     H1 1568   4.187   5.669   4.074
    1ILE     H2 1569   4.320   5.777   4.060
    1ILE     H3 1570   4.188   5.779   3.970
    1ILE     CA 1571   4.156   5.872   4.141
    1ILE     HA 1572   4.178   5.965   4.091
    1ILE     CB 1573   4.000   5.849   4.153
    1ILE     HB 1574   3.947   5.823   4.060
    1ILE    CG2 1575   3.984   5.729   4.248
    1ILE   HG21 1576   3.966   5.762   4.350
    1ILE   HG22 1577   3.903   5.661   4.221
    1ILE   HG23 1578   4.073   5.669   4.251
    1ILE    CG1 1579   3.918   5.975   4.191
    1ILE   HG12 1580   3.954   6.063   4.138
    1ILE   HG13 1581   3.928   5.993   4.298
    1ILE    CD1 1582   3.768   5.963   4.159
    1ILE   HD11 1583   3.719   5.886   4.217
    1ILE   HD12 1584   3.719   6.051   4.200
    1ILE   HD13 1585   3.741   5.952   4.054
    1ILE      C 1586   4.228   5.895   4.273
    1ILE      O 1587   4.277   5.799   4.330
    2LEU      N 1588   4.233   6.020   4.320
    2LEU      H 1589   4.186   6.090   4.265
    2LEU     CA 1590   4.263   6.052   4.460
    2LEU     HA 1591   4.294   5.964   4.519
    2LEU     CB 1592   4.383   6.143   4.473
    2LEU    HB2 1593   4.345   6.245   4.463
    2LEU    HB3 1594   4.424   6.134   4.573
    2LEU     CG 1595   4.497   6.130   4.373
    2LEU     HG 1596   4.471   6.152   4.270
    2LEU    CD1 1597   4.602   6.245   4.400
    2LEU   HD11 1598   4.564   6.335   4.352
    2LEU   HD12 1599   4.613   6.261   4.508
    2LEU   HD13 1600   4.704   6.226   4.365
    2LEU    CD2 1601   4.568   6.000   4.386
    2LEU   HD21 1602   4.578   5.982   4.493
    2LEU   HD22 1603   4.499   5.922   4.354
    2LEU   HD23 1604   4.663   5.991   4.334
    2LEU      C 1605   4.143   6.114   4.536
    2LEU      O 1606   4.052   6.174   4.477
    3ARG      N 1607   4.136   6.084   4.664
    3ARG      H 1608   4.213   6.031   4.704
    3ARG     CA 1609   4.023   6.119   4.753
    3ARG     HA 1610   3.960   6.192   4.701
    3ARG     CB 1611   3.929   5.998   4.784
    3ARG    HB2 1612   3.838   6.040   4.826
    3ARG    HB3 1613   3.900   5.960   4.686
    3ARG     CG 1614   3.982   5.882   4.874
    3ARG    HG2 1615   4.075   5.840   4.838
    3ARG    HG3 1616   3.994   5.918   4.976
    3ARG     CD 1617   3.885   5.766   4.891
    3ARG    HD2 1618   3.910   5.717   4.986
    3ARG    HD3 1619   3.786   5.806   4.914
    3ARG     NE 1620   3.885   5.669   4.786
    3ARG     HE 1621   3.957   5.600   4.795
    3ARG     CZ 1622   3.790   5.654   4.693
    3ARG    NH1 1623   3.672   5.712   4.700
    3ARG   HH11 1624   3.657   5.794   4.755
    3ARG   HH12 1625   3.598   5.695   4.635
    3ARG    NH2 1626   3.819   5.566   4.593
    3ARG   HH21 1627   3.902   5.511   4.591
    3ARG   HH22 1628   3.744   5.547   4.527
    3ARG      C 1629   4.068   6.180   4.884
    3ARG      O 1630   4.181   6.166   4.927
    4TRP      N 1631   3.984   6.270   4.937
    4TRP      H 1632   3.890   6.278   4.902
    4TRP     CA 1633   4.019   6.355   5.054
    4TRP     HA 1634   4.103   6.311   5.109
    4TRP     CB 1635   4.066   6.495   4.997
    4TRP    HB2 1636   4.000   6.528   4.916
    4TRP    HB3 1637   4.079   6.569   5.076
    4TRP     CG 1638   4.199   6.493   4.929
    4TRP    CD1 1639   4.317   6.493   4.991
    4TRP    HD1 1640   4.335   6.493   5.098
    4TRP    NE1 1641   4.416   6.503   4.898
    4TRP    HE1 1642   4.515   6.499   4.925
    4TRP    CE2 1643   4.367   6.508   4.771
    4TRP    CZ2 1644   4.422   6.515   4.643
    4TRP    HZ2 1645   4.527   6.523   4.617
    4TRP    CH2 1646   4.337   6.505   4.533
    4TRP    HH2 1647   4.371   6.513   4.432
    4TRP    CZ3 1648   4.204   6.469   4.547
    4TRP    HZ3 1649   4.143   6.464   4.458
    4TRP    CE3 1650   4.141   6.461   4.675
    4TRP    HE3 1651   4.035   6.436   4.687
    4TRP    CD2 1652   4.222   6.484   4.791
    4TRP      C 1653   3.891   6.376   5.153
    4TRP      O 1654   3.779   6.344   5.113
    5PRO      N 1655   3.910   6.435   5.270
    5PRO     CD 1656   4.039   6.434   5.333
    5PRO    HD2 1657   4.090   6.529   5.320
    5PRO    HD3 1658   4.107   6.353   5.303
    5PRO     CG 1659   4.006   6.418   5.485
    5PRO    HG2 1660   4.085   6.456   5.550
    5PRO    HG3 1661   3.995   6.311   5.506
    5PRO     CB 1662   3.880   6.499   5.497
    5PRO    HB2 1663   3.901   6.607   5.494
    5PRO    HB3 1664   3.828   6.460   5.584
    5PRO     CA 1665   3.807   6.465   5.368
    5PRO     HA 1666   3.751   6.373   5.385
    5PRO      C 1667   3.709   6.576   5.327
    5PRO      O 1668   3.752   6.647   5.232
    6TRP      N 1669   3.601   6.612   5.394
    6TRP      H 1670   3.576   6.540   5.461
    6TRP     CA 1671   3.513   6.733   5.367
    6TRP     HA 1672   3.500   6.747   5.260
    6TRP     CB 1673   3.370   6.699   5.427
    6TRP    HB2 1674   3.384   6.667   5.530
    6TRP    HB3 1675   3.300   6.783   5.431
    6TRP     CG 1676   3.286   6.595   5.351
    6TRP    CD1 1677   3.279   6.463   5.380
    6TRP    HD1 1678   3.328   6.425   5.470
    6TRP    NE1 1679   3.205   6.386   5.286
    6TRP    HE1 1680   3.202   6.286   5.293
    6TRP    CE2 1681   3.178   6.469   5.182
    6TRP    CZ2 1682   3.116   6.449   5.057
    6TRP    HZ2 1683   3.097   6.349   5.022
    6TRP    CH2 1684   3.088   6.552   4.970
    6TRP    HH2 1685   3.047   6.523   4.875
    6TRP    CZ3 1686   3.126   6.685   4.995
    6TRP    HZ3 1687   3.110   6.764   4.924
    6TRP    CE3 1688   3.193   6.706   5.120
    6TRP    HE3 1689   3.221   6.807   5.148
    6TRP    CD2 1690   3.218   6.602   5.218
    6TRP      C 1691   3.563   6.861   5.419
    6TRP      O 1692   3.511   6.969   5.384
    7TRP      N 1693   3.669   6.855   5.503
    7TRP      H 1694   3.702   6.762   5.523
    7TRP     CA 1695   3.721   6.971   5.577
    7TRP     HA 1696   3.635   7.022   5.620
    7TRP     CB 1697   3.819   6.921   5.684
    7TRP    HB2 1698   3.921   6.926   5.647
    7TRP    HB3 1699   3.820   6.997   5.761
    7TRP     CG 1700   3.797   6.793   5.763
    7TRP    CD1 1701   3.891   6.725   5.835
    7TRP    HD1 1702   3.994   6.756   5.842
    7TRP    NE1 1703   3.845   6.612   5.897
    7TRP    HE1 1704   3.910   6.551   5.944
    7TRP    CE2 1705   3.707   6.605   5.876
    7TRP    CZ2 1706   3.616   6.515   5.926
    7TRP    HZ2 1707   3.651   6.433   5.988
    7TRP    CH2 1708   3.481   6.523   5.888
    7TRP    HH2 1709   3.411   6.453   5.931
    7TRP    CZ3 1710   3.441   6.628   5.803
    7TRP    HZ3 1711   3.338   6.632   5.766
    7TRP    CE3 1712   3.536   6.729   5.769
    7TRP    HE3 1713   3.504   6.821   5.723
    7TRP    CD2 1714   3.675   6.718   5.797
    7TRP      C 1715   3.784   7.064   5.478
    7TRP      O 1716   3.848   7.015   5.384
    8PRO      N 1717   3.789   7.198   5.499
    8PRO     CD 1718   3.748   7.270   5.619
    8PRO    HD2 1719   3.796   7.229   5.708
    8PRO    HD3 1720   3.639   7.267   5.624
    8PRO     CG 1721   3.806   7.410   5.600
    8PRO    HG2 1722   3.900   7.418   5.655
    8PRO    HG3 1723   3.739   7.483   5.644
    8PRO     CB 1724   3.820   7.429   5.447
    8PRO    HB2 1725   3.909   7.488   5.426
    8PRO    HB3 1726   3.724   7.461   5.404
    8PRO     CA 1727   3.846   7.288   5.396
    8PRO     HA 1728   3.791   7.283   5.302
    8PRO      C 1729   3.994   7.270   5.371
    8PRO      O 1730   4.078   7.292   5.464
    9TRP      N 1731   4.025   7.229   5.245
    9TRP      H 1732   3.952   7.210   5.181
    9TRP     CA 1733   4.162   7.217   5.191
    9TRP     HA 1734   4.233   7.285   5.239
    9TRP     CB 1735   4.204   7.067   5.210
    9TRP    HB2 1736   4.120   7.012   5.169
    9TRP    HB3 1737   4.294   7.052   5.149
    9TRP     CG 1738   4.220   7.015   5.355
    9TRP    CD1 1739   4.156   6.916   5.423
    9TRP    HD1 1740   4.085   6.847   5.382
    9TRP    NE1 1741   4.199   6.904   5.555
    9TRP    HE1 1742   4.170   6.838   5.625
    9TRP    CE2 1743   4.282   7.010   5.588
    9TRP    CZ2 1744   4.354   7.050   5.703
    9TRP    HZ2 1745   4.344   6.994   5.794
    9TRP    CH2 1746   4.452   7.146   5.692
    9TRP    HH2 1747   4.509   7.164   5.782
    9TRP    CZ3 1748   4.472   7.212   5.569
    9TRP    HZ3 1749   4.547   7.289   5.569
    9TRP    CE3 1750   4.397   7.177   5.453
    9TRP    HE3 1751   4.422   7.222   5.359
    9TRP    CD2 1752   4.298   7.078   5.463
    9TRP      C 1753   4.163   7.252   5.042
    9TRP      O 1754   4.098   7.191   4.961
   10ARG      N 1755   4.243   7.351   5.005
   10ARG      H 1756   4.278   7.410   5.081
   10ARG     CA 1757   4.266   7.388   4.872
   10ARG     HA 1758   4.172   7.384   4.818
   10ARG     CB 1759   4.329   7.526   4.872
   10ARG    HB2 1760   4.422   7.526   4.930
   10ARG    HB3 1761   4.363   7.541   4.769
   10ARG     CG 1762   4.243   7.641   4.917
   10ARG    HG2 1763   4.157   7.637   4.849
   10ARG    HG3 1764   4.193   7.626   5.013
   10ARG     CD 1765   4.317   7.780   4.910
   10ARG    HD2 1766   4.247   7.861   4.924
   10ARG    HD3 1767   4.402   7.784   4.980
   10ARG     NE 1768   4.363   7.807   4.770
   10ARG     HE 1769   4.290   7.816   4.703
   10ARG     CZ 1770   4.493   7.803   4.732
   10ARG    NH1 1771   4.581   7.735   4.802
   10ARG   HH11 1772   4.558   7.667   4.873
   10ARG   HH12 1773   4.677   7.750   4.775
   10ARG    NH2 1774   4.533   7.866   4.623
   10ARG   HH21 1775   4.479   7.935   4.574
   10ARG   HH22 1776   4.629   7.853   4.597
   10ARG      C 1777   4.361   7.288   4.806
   10ARG      O 1778   4.456   7.238   4.869
   11ARG      N 1779   4.342   7.249   4.678
   11ARG      H 1780   4.261   7.291   4.634
   11ARG     CA 1781   4.422   7.161   4.593
   11ARG     HA 1782   4.525   7.188   4.622
   11ARG     CB 1783   4.401   7.005   4.625
   11ARG    HB2 1784   4.448   6.944   4.547
   11ARG    HB3 1785   4.443   6.980   4.723
   11ARG     CG 1786   4.251   6.964   4.620
   11ARG    HG2 1787   4.198   7.031   4.687
   11ARG    HG3 1788   4.210   6.986   4.521
   11ARG     CD 1789   4.224   6.815   4.672
   11ARG    HD2 1790   4.249   6.757   4.585
   11ARG    HD3 1791   4.285   6.796   4.760
   11ARG     NE 1792   4.078   6.798   4.697
   11ARG     HE 1793   4.008   6.806   4.624
   11ARG     CZ 1794   4.024   6.796   4.816
   11ARG    NH1 1795   4.077   6.816   4.935
   11ARG   HH11 1796   4.177   6.828   4.951
   11ARG   HH12 1797   4.016   6.835   5.012
   11ARG    NH2 1798   3.895   6.780   4.823
   11ARG   HH21 1799   3.844   6.790   4.737
   11ARG   HH22 1800   3.848   6.744   4.904
   11ARG      C 1801   4.404   7.199   4.448
   11ARG      O 1802   4.290   7.236   4.416
   12LYS      N 1803   4.501   7.173   4.360
   12LYS      H 1804   4.587   7.142   4.402
   12LYS     CA 1805   4.491   7.191   4.213
   12LYS     HA 1806   4.489   7.299   4.208
   12LYS     CB 1807   4.622   7.131   4.153
   12LYS    HB2 1808   4.708   7.148   4.216
   12LYS    HB3 1809   4.614   7.023   4.156
   12LYS     CG 1810   4.665   7.180   4.020
   12LYS    HG2 1811   4.583   7.172   3.948
   12LYS    HG3 1812   4.701   7.283   4.029
   12LYS     CD 1813   4.778   7.102   3.966
   12LYS    HD2 1814   4.866   7.115   4.029
   12LYS    HD3 1815   4.752   6.997   3.957
   12LYS     CE 1816   4.804   7.153   3.818
   12LYS    HE2 1817   4.711   7.147   3.762
   12LYS    HE3 1818   4.834   7.257   3.803
   12LYS     NZ 1819   4.902   7.068   3.746
   12LYS    HZ1 1820   4.999   7.085   3.769
   12LYS    HZ2 1821   4.885   6.969   3.751
   12LYS    HZ3 1822   4.896   7.099   3.649
   12LYS      C 1823   4.366   7.146   4.138
   12LYS      O 1824   4.316   7.039   4.165
   13NHE      N 1825   4.337   7.228   4.034
   13NHE    HN1 1826   4.385   7.316   4.018
   13NHE    HN2 1827   4.264   7.207   3.967
    1ILE      N 1828   6.937   8.589   5.286
    1ILE     H1 1829   6.879   8.666   5.256
    1ILE     H2 1830   6.887   8.504   5.315
    1ILE     H3 1831   6.977   8.565   5.197
    1ILE     CA 1832   7.053   8.612   5.373
    1ILE     HA 1833   7.119   8.528   5.363
    1ILE     CB 1834   7.127   8.747   5.331
    1ILE     HB 1835   7.146   8.761   5.225
    1ILE    CG2 1836   7.032   8.860   5.375
    1ILE   HG21 1837   7.059   8.899   5.473
    1ILE   HG22 1838   7.029   8.944   5.306
    1ILE   HG23 1839   6.930   8.825   5.384
    1ILE    CG1 1840   7.273   8.759   5.384
    1ILE   HG12 1841   7.326   8.665   5.374
    1ILE   HG13 1842   7.271   8.787   5.489
    1ILE    CD1 1843   7.356   8.865   5.309
    1ILE   HD11 1844   7.318   8.966   5.323
    1ILE   HD12 1845   7.452   8.874   5.360
    1ILE   HD13 1846   7.373   8.847   5.203
    1ILE      C 1847   7.016   8.602   5.520
    1ILE      O 1848   6.904   8.638   5.554
    2LEU      N 1849   7.108   8.553   5.603
    2LEU      H 1850   7.197   8.530   5.563
    2LEU     CA 1851   7.102   8.573   5.749
    2LEU     HA 1852   7.008   8.619   5.783
    2LEU     CB 1853   7.102   8.441   5.823
    2LEU    HB2 1854   7.207   8.412   5.836
    2LEU    HB3 1855   7.060   8.455   5.923
    2LEU     CG 1856   7.032   8.321   5.761
    2LEU     HG 1857   7.075   8.286   5.667
    2LEU    CD1 1858   7.059   8.193   5.852
    2LEU   HD11 1859   7.158   8.156   5.826
    2LEU   HD12 1860   7.054   8.222   5.957
    2LEU   HD13 1861   6.986   8.112   5.842
    2LEU    CD2 1862   6.885   8.339   5.751
    2LEU   HD21 1863   6.854   8.385   5.844
    2LEU   HD22 1864   6.867   8.418   5.677
    2LEU   HD23 1865   6.826   8.251   5.727
    2LEU      C 1866   7.215   8.662   5.803
    2LEU      O 1867   7.324   8.676   5.744
    3ARG      N 1868   7.184   8.736   5.908
    3ARG      H 1869   7.092   8.722   5.948
    3ARG     CA 1870   7.271   8.840   5.968
    3ARG     HA 1871   7.371   8.828   5.926
    3ARG     CB 1872   7.227   8.985   5.931
    3ARG    HB2 1873   7.312   9.049   5.956
    3ARG    HB3 1874   7.224   8.986   5.822
    3ARG     CG 1875   7.095   9.042   5.990
    3ARG    HG2 1876   7.009   8.979   5.970
    3ARG    HG3 1877   7.107   9.057   6.097
    3ARG     CD 1878   7.059   9.182   5.941
    3ARG    HD2 1879   6.996   9.228   6.018
    3ARG    HD3 1880   7.148   9.245   5.947
    3ARG     NE 1881   6.992   9.188   5.815
    3ARG     HE 1882   6.893   9.173   5.821
    3ARG     CZ 1883   7.045   9.228   5.699
    3ARG    NH1 1884   7.161   9.290   5.691
    3ARG   HH11 1885   7.231   9.282   5.763
    3ARG   HH12 1886   7.199   9.328   5.606
    3ARG    NH2 1887   6.968   9.211   5.589
    3ARG   HH21 1888   6.874   9.175   5.593
    3ARG   HH22 1889   7.004   9.249   5.502
    3ARG      C 1890   7.280   8.829   6.119
    3ARG      O 1891   7.197   8.769   6.185
    4TRP      N 1892   7.397   8.868   6.172
    4TRP      H 1893   7.462   8.920   6.116
    4TRP     CA 1894   7.432   8.847   6.315
    4TRP     HA 1895   7.342   8.829   6.373
    4TRP     CB 1896   7.522   8.715   6.321
    4TRP    HB2 1897   7.595   8.714   6.239
    4TRP    HB3 1898   7.564   8.700   6.420
    4TRP     CG 1899   7.446   8.589   6.296
    4TRP    CD1 1900   7.370   8.525   6.386
    4TRP    HD1 1901   7.349   8.557   6.487
    4TRP    NE1 1902   7.328   8.407   6.333
    4TRP    HE1 1903   7.263   8.347   6.383
    4TRP    CE2 1904   7.373   8.389   6.206
    4TRP    CZ2 1905   7.358   8.291   6.107
    4TRP    HZ2 1906   7.304   8.197   6.116
    4TRP    CH2 1907   7.412   8.314   5.981
    4TRP    HH2 1908   7.407   8.242   5.901
    4TRP    CZ3 1909   7.461   8.439   5.944
    4TRP    HZ3 1910   7.502   8.450   5.845
    4TRP    CE3 1911   7.480   8.543   6.040
    4TRP    HE3 1912   7.523   8.640   6.012
    4TRP    CD2 1913   7.439   8.518   6.175
    4TRP      C 1914   7.515   8.973   6.375
    4TRP      O 1915   7.561   9.057   6.297
    5PRO      N 1916   7.540   8.977   6.505
    5PRO     CD 1917   7.457   8.906   6.598
    5PRO    HD2 1918   7.503   8.814   6.631
    5PRO    HD3 1919   7.354   8.885   6.564
    5PRO     CG 1920   7.449   9.003   6.721
    5PRO    HG2 1921   7.426   8.951   6.814
    5PRO    HG3 1922   7.368   9.074   6.703
    5PRO     CB 1923   7.587   9.061   6.722
    5PRO    HB2 1924   7.661   8.988   6.760
    5PRO    HB3 1925   7.579   9.156   6.774
    5PRO     CA 1926   7.616   9.080   6.574
    5PRO     HA 1927   7.575   9.176   6.545
    5PRO      C 1928   7.767   9.079   6.544
    5PRO      O 1929   7.807   8.971   6.494
    6TRP      N 1930   7.854   9.170   6.587
    6TRP      H 1931   7.805   9.253   6.617
    6TRP     CA 1932   8.006   9.162   6.576
    6TRP     HA 1933   8.035   9.120   6.480
    6TRP     CB 1934   8.058   9.311   6.580
    6TRP    HB2 1935   8.015   9.360   6.667
    6TRP    HB3 1936   8.166   9.323   6.590
    6TRP     CG 1937   8.033   9.396   6.454
    6TRP    CD1 1938   7.929   9.482   6.436
    6TRP    HD1 1939   7.861   9.502   6.519
    6TRP    NE1 1940   7.921   9.538   6.306
    6TRP    HE1 1941   7.843   9.594   6.279
    6TRP    CE2 1942   8.013   9.472   6.230
    6TRP    CZ2 1943   8.046   9.477   6.094
    6TRP    HZ2 1944   7.981   9.529   6.025
    6TRP    CH2 1945   8.153   9.409   6.039
    6TRP    HH2 1946   8.164   9.416   5.932
    6TRP    CZ3 1947   8.234   9.323   6.116
    6TRP    HZ3 1948   8.314   9.265   6.072
    6TRP    CE3 1949   8.199   9.313   6.254
    6TRP    HE3 1950   8.260   9.252   6.320
    6TRP    CD2 1951   8.092   9.389   6.316
    6TRP      C 1952   8.072   9.080   6.678
    6TRP      O 1953   8.193   9.050   6.667
    7TRP      N 1954   7.997   9.039   6.783
    7TRP      H 1955   7.901   9.070   6.780
    7TRP     CA 1956   8.050   8.971   6.901
    7TRP     HA 1957   8.138   9.027   6.932
    7TRP     CB 1958   7.942   8.967   7.009
    7TRP    HB2 1959   7.889   8.873   7.005
    7TRP    HB3 1960   7.995   8.959   7.104
    7TRP     CG 1961   7.846   9.082   7.034
    7TRP    CD1 1962   7.728   9.077   7.103
    7TRP    HD1 1963   7.691   8.986   7.149
    7TRP    NE1 1964   7.660   9.195   7.110
    7TRP    HE1 1965   7.568   9.197   7.152
    7TRP    CE2 1966   7.739   9.293   7.051
    7TRP    CZ2 1967   7.717   9.429   7.041
    7TRP    HZ2 1968   7.625   9.470   7.081
    7TRP    CH2 1969   7.808   9.510   6.971
    7TRP    HH2 1970   7.790   9.617   6.969
    7TRP    CZ3 1971   7.923   9.451   6.917
    7TRP    HZ3 1972   7.991   9.511   6.856
    7TRP    CE3 1973   7.951   9.313   6.945
    7TRP    HE3 1974   8.047   9.271   6.924
    7TRP    CD2 1975   7.856   9.226   7.006
    7TRP      C 1976   8.096   8.834   6.858
    7TRP      O 1977   8.028   8.772   6.776
    8PRO      N 1978   8.198   8.770   6.922
    8PRO     CD 1979   8.269   8.813   7.042
    8PRO    HD2 1980   8.198   8.836   7.123
    8PRO    HD3 1981   8.330   8.899   7.015
    8PRO     CG 1982   8.347   8.691   7.086
    8PRO    HG2 1983   8.292   8.639   7.164
    8PRO    HG3 1984   8.441   8.721   7.130
    8PRO     CB 1985   8.368   8.607   6.957
    8PRO    HB2 1986   8.364   8.501   6.982
    8PRO    HB3 1987   8.456   8.645   6.902
    8PRO     CA 1988   8.246   8.639   6.874
    8PRO     HA 1989   8.283   8.643   6.772
    8PRO      C 1990   8.145   8.526   6.887
    8PRO      O 1991   8.104   8.491   7.002
    9TRP      N 1992   8.107   8.472   6.769
    9TRP      H 1993   8.141   8.510   6.684
    9TRP     CA 1994   8.020   8.353   6.755
    9TRP     HA 1995   8.027   8.284   6.839
    9TRP     CB 1996   7.873   8.406   6.735
    9TRP    HB2 1997   7.883   8.481   6.657
    9TRP    HB3 1998   7.813   8.321   6.701
    9TRP     CG 1999   7.808   8.481   6.854
    9TRP    CD1 2000   7.762   8.609   6.866
    9TRP    HD1 2001   7.753   8.680   6.787
    9TRP    NE1 2002   7.714   8.637   6.994
    9TRP    HE1 2003   7.672   8.722   7.028
    9TRP    CE2 2004   7.745   8.534   7.081
    9TRP    CZ2 2005   7.723   8.507   7.218
    9TRP    HZ2 2006   7.676   8.581   7.280
    9TRP    CH2 2007   7.742   8.379   7.266
    9TRP    HH2 2008   7.714   8.365   7.369
    9TRP    CZ3 2009   7.795   8.280   7.182
    9TRP    HZ3 2010   7.811   8.184   7.228
    9TRP    CE3 2011   7.823   8.306   7.045
    9TRP    HE3 2012   7.852   8.224   6.981
    9TRP    CD2 2013   7.802   8.435   6.994
    9TRP      C 2014   8.061   8.272   6.631
    9TRP      O 2015   8.060   8.319   6.520
   10ARG      N 2016   8.096   8.146   6.652
   10ARG      H 2017   8.115   8.121   6.749
   10ARG     CA 2018   8.124   8.054   6.549
   10ARG     HA 2019   8.182   8.105   6.473
   10ARG     CB 2020   8.196   7.936   6.611
   10ARG    HB2 2021   8.135   7.890   6.690
   10ARG    HB3 2022   8.198   7.860   6.532
   10ARG     CG 2023   8.335   7.961   6.665
   10ARG    HG2 2024   8.389   7.999   6.577
   10ARG    HG3 2025   8.344   8.045   6.733
   10ARG     CD 2026   8.402   7.830   6.724
   10ARG    HD2 2027   8.508   7.847   6.743
   10ARG    HD3 2028   8.347   7.794   6.812
   10ARG     NE 2029   8.409   7.724   6.619
   10ARG     HE 2030   8.467   7.746   6.540
   10ARG     CZ 2031   8.332   7.613   6.619
   10ARG    NH1 2032   8.220   7.611   6.686
   10ARG   HH11 2033   8.171   7.692   6.722
   10ARG   HH12 2034   8.176   7.520   6.693
   10ARG    NH2 2035   8.369   7.506   6.552
   10ARG   HH21 2036   8.461   7.490   6.515
   10ARG   HH22 2037   8.304   7.429   6.552
   10ARG      C 2038   7.994   8.007   6.485
   10ARG      O 2039   7.891   7.987   6.552
   11ARG      N 2040   7.987   7.989   6.351
   11ARG      H 2041   8.073   8.010   6.302
   11ARG     CA 2042   7.876   7.938   6.268
   11ARG     HA 2043   7.834   7.860   6.332
   11ARG     CB 2044   7.762   8.048   6.242
   11ARG    HB2 2045   7.694   8.011   6.165
   11ARG    HB3 2046   7.708   8.069   6.334
   11ARG     CG 2047   7.820   8.179   6.182
   11ARG    HG2 2048   7.899   8.212   6.249
   11ARG    HG3 2049   7.871   8.158   6.088
   11ARG     CD 2050   7.712   8.298   6.173
   11ARG    HD2 2051   7.659   8.273   6.083
   11ARG    HD3 2052   7.652   8.299   6.264
   11ARG     NE 2053   7.783   8.426   6.149
   11ARG     HE 2054   7.839   8.445   6.066
   11ARG     CZ 2055   7.803   8.517   6.242
   11ARG    NH1 2056   7.776   8.516   6.370
   11ARG   HH11 2057   7.724   8.442   6.417
   11ARG   HH12 2058   7.820   8.584   6.429
   11ARG    NH2 2059   7.867   8.625   6.207
   11ARG   HH21 2060   7.913   8.623   6.118
   11ARG   HH22 2061   7.858   8.713   6.255
   11ARG      C 2062   7.932   7.872   6.144
   11ARG      O 2063   8.033   7.926   6.094
   12LYS      N 2064   7.862   7.776   6.084
   12LYS      H 2065   7.782   7.745   6.136
   12LYS     CA 2066   7.896   7.713   5.953
   12LYS     HA 2067   7.984   7.657   5.983
   12LYS     CB 2068   7.776   7.621   5.917
   12LYS    HB2 2069   7.732   7.573   6.003
   12LYS    HB3 2070   7.694   7.684   5.883
   12LYS     CG 2071   7.802   7.508   5.824
   12LYS    HG2 2072   7.851   7.543   5.733
   12LYS    HG3 2073   7.862   7.432   5.875
   12LYS     CD 2074   7.677   7.441   5.783
   12LYS    HD2 2075   7.629   7.395   5.868
   12LYS    HD3 2076   7.610   7.511   5.733
   12LYS     CE 2077   7.717   7.334   5.672
   12LYS    HE2 2078   7.773   7.384   5.593
   12LYS    HE3 2079   7.783   7.252   5.700
   12LYS     NZ 2080   7.597   7.274   5.607
   12LYS    HZ1 2081   7.551   7.202   5.660
   12LYS    HZ2 2082   7.528   7.340   5.576
   12LYS    HZ3 2083   7.635   7.222   5.528
   12LYS      C 2084   7.942   7.799   5.836
   12LYS      O 2085   7.884   7.903   5.812
   13NHE      N 2086   8.035   7.736   5.760
   13NHE    HN1 2087   8.078   7.648   5.787
   13NHE    HN2 2088   8.068   7.774   5.672
    1ILE      N 2089   7.132   4.578   1.447
    1ILE     H1 2090   7.177   4.668   1.445
    1ILE     H2 2091   7.030   4.579   1.452
    1ILE     H3 2092   7.152   4.550   1.353
    1ILE     CA 2093   7.186   4.469   1.530
    1ILE     HA 2094   7.148   4.376   1.491
    1ILE     CB 2095   7.345   4.471   1.526
    1ILE     HB 2096   7.392   4.481   1.428
    1ILE    CG2 2097   7.386   4.595   1.608
    1ILE   HG21 2098   7.408   4.570   1.711
    1ILE   HG22 2099   7.473   4.649   1.567
    1ILE   HG23 2100   7.306   4.668   1.611
    1ILE    CG1 2101   7.412   4.338   1.571
    1ILE   HG12 2102   7.360   4.252   1.529
    1ILE   HG13 2103   7.410   4.332   1.679
    1ILE    CD1 2104   7.559   4.326   1.526
    1ILE   HD11 2105   7.623   4.401   1.571
    1ILE   HD12 2106   7.600   4.236   1.571
    1ILE   HD13 2107   7.577   4.324   1.418
    1ILE      C 2108   7.125   4.469   1.669
    1ILE      O 2109   7.095   4.576   1.719
    2LEU      N 2110   7.108   4.351   1.728
    2LEU      H 2111   7.140   4.270   1.677
    2LEU     CA 2112   7.087   4.336   1.873
    2LEU     HA 2113   7.074   4.432   1.925
    2LEU     CB 2114   6.957   4.264   1.904
    2LEU    HB2 2115   6.980   4.157   1.901
    2LEU    HB3 2116   6.927   4.288   2.006
    2LEU     CG 2117   6.837   4.285   1.813
    2LEU     HG 2118   6.850   4.250   1.710
    2LEU    CD1 2119   6.720   4.189   1.860
    2LEU   HD11 2120   6.741   4.090   1.818
    2LEU   HD12 2121   6.718   4.184   1.969
    2LEU   HD13 2122   6.619   4.219   1.831
    2LEU    CD2 2123   6.786   4.424   1.818
    2LEU   HD21 2124   6.788   4.453   1.923
    2LEU   HD22 2125   6.861   4.489   1.773
    2LEU   HD23 2126   6.689   4.442   1.773
    2LEU      C 2127   7.204   4.265   1.944
    2LEU      O 2128   7.281   4.187   1.885
    3ARG      N 2129   7.226   4.305   2.068
    3ARG      H 2130   7.162   4.372   2.108
    3ARG     CA 2131   7.342   4.262   2.151
    3ARG     HA 2132   7.389   4.176   2.101
    3ARG     CB 2133   7.453   4.370   2.162
    3ARG    HB2 2134   7.542   4.319   2.200
    3ARG    HB3 2135   7.478   4.395   2.058
    3ARG     CG 2136   7.425   4.500   2.243
    3ARG    HG2 2137   7.336   4.552   2.211
    3ARG    HG3 2138   7.418   4.476   2.349
    3ARG     CD 2139   7.538   4.602   2.241
    3ARG    HD2 2140   7.529   4.663   2.332
    3ARG    HD3 2141   7.633   4.551   2.260
    3ARG     NE 2142   7.542   4.689   2.127
    3ARG     HE 2143   7.481   4.767   2.134
    3ARG     CZ 2144   7.628   4.682   2.025
    3ARG    NH1 2145   7.738   4.608   2.029
    3ARG   HH11 2146   7.746   4.529   2.090
    3ARG   HH12 2147   7.807   4.608   1.957
    3ARG    NH2 2148   7.603   4.763   1.920
    3ARG   HH21 2149   7.528   4.829   1.919
    3ARG   HH22 2150   7.673   4.765   1.846
    3ARG      C 2151   7.302   4.219   2.291
    3ARG      O 2152   7.195   4.254   2.341
    4TRP      N 2153   7.377   4.124   2.346
    4TRP      H 2154   7.465   4.100   2.304
    4TRP     CA 2155   7.342   4.055   2.473
    4TRP     HA 2156   7.270   4.116   2.529
    4TRP     CB 2157   7.272   3.918   2.434
    4TRP    HB2 2158   7.325   3.870   2.352
    4TRP    HB3 2159   7.256   3.855   2.521
    4TRP     CG 2160   7.134   3.934   2.377
    4TRP    CD1 2161   7.023   3.956   2.448
    4TRP    HD1 2162   7.016   3.969   2.556
    4TRP    NE1 2163   6.916   3.952   2.365
    4TRP    HE1 2164   6.822   3.973   2.399
    4TRP    CE2 2165   6.951   3.929   2.236
    4TRP    CZ2 2166   6.884   3.919   2.113
    4TRP    HZ2 2167   6.778   3.923   2.097
    4TRP    CH2 2168   6.960   3.906   1.997
    4TRP    HH2 2169   6.915   3.895   1.900
    4TRP    CZ3 2170   7.097   3.924   1.997
    4TRP    HZ3 2171   7.150   3.912   1.902
    4TRP    CE3 2172   7.172   3.935   2.117
    4TRP    HE3 2173   7.281   3.945   2.118
    4TRP    CD2 2174   7.099   3.933   2.241
    4TRP      C 2175   7.475   4.026   2.563
    4TRP      O 2176   7.585   4.038   2.511
    5PRO      N 2177   7.459   3.980   2.686
    5PRO     CD 2178   7.337   4.005   2.759
    5PRO    HD2 2179   7.273   3.917   2.760
    5PRO    HD3 2180   7.278   4.093   2.727
    5PRO     CG 2181   7.386   4.030   2.905
    5PRO    HG2 2182   7.309   4.009   2.980
    5PRO    HG3 2183   7.413   4.136   2.915
    5PRO     CB 2184   7.501   3.933   2.915
    5PRO    HB2 2185   7.466   3.830   2.925
    5PRO    HB3 2186   7.566   3.971   2.994
    5PRO     CA 2187   7.566   3.945   2.779
    5PRO     HA 2188   7.635   4.028   2.782
    5PRO      C 2189   7.644   3.818   2.741
    5PRO      O 2190   7.582   3.746   2.657
    6TRP      N 2191   7.752   3.773   2.803
    6TRP      H 2192   7.792   3.846   2.859
    6TRP     CA 2193   7.820   3.638   2.781
    6TRP     HA 2194   7.821   3.613   2.675
    6TRP     CB 2195   7.970   3.657   2.826
    6TRP    HB2 2196   7.971   3.699   2.926
    6TRP    HB3 2197   8.028   3.565   2.832
    6TRP     CG 2198   8.060   3.740   2.733
    6TRP    CD1 2199   8.088   3.872   2.748
    6TRP    HD1 2200   8.053   3.925   2.837
    6TRP    NE1 2201   8.162   3.929   2.641
    6TRP    HE1 2202   8.179   4.028   2.637
    6TRP    CE2 2203   8.168   3.834   2.544
    6TRP    CZ2 2204   8.220   3.834   2.413
    6TRP    HZ2 2205   8.250   3.927   2.367
    6TRP    CH2 2206   8.226   3.720   2.335
    6TRP    HH2 2207   8.262   3.735   2.234
    6TRP    CZ3 2208   8.173   3.597   2.377
    6TRP    HZ3 2209   8.171   3.510   2.313
    6TRP    CE3 2210   8.115   3.597   2.508
    6TRP    HE3 2211   8.077   3.504   2.548
    6TRP    CD2 2212   8.114   3.712   2.596
    6TRP      C 2213   7.757   3.524   2.849
    6TRP      O 2214   7.791   3.407   2.822
    7TRP      N 2215   7.662   3.552   2.941
    7TRP      H 2216   7.644   3.651   2.954
    7TRP     CA 2217   7.602   3.452   3.030
    7TRP     HA 2218   7.684   3.394   3.071
    7TRP     CB 2219   7.522   3.525   3.139
    7TRP    HB2 2220   7.417   3.532   3.110
    7TRP    HB3 2221   7.518   3.457   3.223
    7TRP     CG 2222   7.568   3.655   3.203
    7TRP    CD1 2223   7.492   3.742   3.274
    7TRP    HD1 2224   7.386   3.727   3.293
    7TRP    NE1 2225   7.558   3.852   3.320
    7TRP    HE1 2226   7.506   3.926   3.366
    7TRP    CE2 2227   7.693   3.837   3.289
    7TRP    CZ2 2228   7.800   3.918   3.321
    7TRP    HZ2 2229   7.781   4.009   3.378
    7TRP    CH2 2230   7.928   3.887   3.274
    7TRP    HH2 2231   8.010   3.950   3.304
    7TRP    CZ3 2232   7.945   3.771   3.197
    7TRP    HZ3 2233   8.042   3.749   3.153
    7TRP    CE3 2234   7.835   3.681   3.181
    7TRP    HE3 2235   7.850   3.582   3.142
    7TRP    CD2 2236   7.701   3.714   3.218
    7TRP      C 2237   7.517   3.361   2.946
    7TRP      O 2238   7.452   3.409   2.853
    8PRO      N 2239   7.497   3.231   2.981
    8PRO     CD 2240   7.538   3.165   3.104
    8PRO    HD2 2241   7.505   3.220   3.192
    8PRO    HD3 2242   7.647   3.153   3.100
    8PRO     CG 2243   7.461   3.034   3.104
    8PRO    HG2 2244   7.372   3.044   3.167
    8PRO    HG3 2245   7.521   2.956   3.149
    8PRO     CB 2246   7.430   3.003   2.955
    8PRO    HB2 2247   7.332   2.956   2.947
    8PRO    HB3 2248   7.517   2.954   2.908
    8PRO     CA 2249   7.419   3.141   2.893
    8PRO     HA 2250   7.465   3.130   2.795
    8PRO      C 2251   7.273   3.178   2.878
    8PRO      O 2252   7.196   3.177   2.979
    9TRP      N 2253   7.236   3.211   2.751
    9TRP      H 2254   7.305   3.214   2.680
    9TRP     CA 2255   7.097   3.238   2.708
    9TRP     HA 2256   7.023   3.186   2.767
    9TRP     CB 2257   7.078   3.394   2.714
    9TRP    HB2 2258   7.164   3.433   2.662
    9TRP    HB3 2259   6.985   3.416   2.660
    9TRP     CG 2260   7.083   3.461   2.854
    9TRP    CD1 2261   7.166   3.555   2.906
    9TRP    HD1 2262   7.241   3.609   2.853
    9TRP    NE1 2263   7.137   3.584   3.039
    9TRP    HE1 2264   7.181   3.652   3.100
    9TRP    CE2 2265   7.044   3.495   3.090
    9TRP    CZ2 2266   6.978   3.476   3.213
    9TRP    HZ2 2267   7.005   3.537   3.297
    9TRP    CH2 2268   6.867   3.394   3.220
    9TRP    HH2 2269   6.818   3.392   3.315
    9TRP    CZ3 2270   6.828   3.321   3.106
    9TRP    HZ3 2271   6.743   3.256   3.120
    9TRP    CE3 2272   6.896   3.334   2.982
    9TRP    HE3 2273   6.856   3.285   2.895
    9TRP    CD2 2274   7.007   3.419   2.974
    9TRP      C 2275   7.077   3.190   2.563
    9TRP      O 2276   7.143   3.234   2.471
   10ARG      N 2277   6.982   3.101   2.543
   10ARG      H 2278   6.947   3.055   2.627
   10ARG     CA 2279   6.942   3.056   2.416
   10ARG     HA 2280   7.030   3.042   2.355
   10ARG     CB 2281   6.861   2.929   2.435
   10ARG    HB2 2282   6.775   2.948   2.500
   10ARG    HB3 2283   6.816   2.910   2.337
   10ARG     CG 2284   6.935   2.808   2.485
   10ARG    HG2 2285   7.014   2.794   2.410
   10ARG    HG3 2286   6.995   2.823   2.574
   10ARG     CD 2287   6.842   2.680   2.498
   10ARG    HD2 2288   6.902   2.591   2.514
   10ARG    HD3 2289   6.764   2.695   2.574
   10ARG     NE 2290   6.780   2.648   2.366
   10ARG     HE 2291   6.845   2.623   2.294
   10ARG     CZ 2292   6.649   2.668   2.337
   10ARG    NH1 2293   6.578   2.753   2.408
   10ARG   HH11 2294   6.616   2.824   2.469
   10ARG   HH12 2295   6.479   2.750   2.390
   10ARG    NH2 2296   6.592   2.601   2.239
   10ARG   HH21 2297   6.630   2.521   2.194
   10ARG   HH22 2298   6.496   2.625   2.220
   10ARG      C 2299   6.856   3.163   2.349
   10ARG      O 2300   6.774   3.231   2.413
   11ARG      N 2301   6.868   3.187   2.217
   11ARG      H 2302   6.938   3.130   2.171
   11ARG     CA 2303   6.793   3.278   2.129
   11ARG     HA 2304   6.691   3.268   2.169
   11ARG     CB 2305   6.838   3.431   2.144
   11ARG    HB2 2306   6.792   3.491   2.064
   11ARG    HB3 2307   6.809   3.470   2.241
   11ARG     CG 2308   6.990   3.449   2.123
   11ARG    HG2 2309   7.040   3.382   2.191
   11ARG    HG3 2310   7.019   3.414   2.024
   11ARG     CD 2311   7.042   3.597   2.157
   11ARG    HD2 2312   7.017   3.650   2.067
   11ARG    HD3 2313   6.993   3.633   2.247
   11ARG     NE 2314   7.191   3.596   2.168
   11ARG     HE 2315   7.252   3.571   2.091
   11ARG     CZ 2316   7.255   3.600   2.282
   11ARG    NH1 2317   7.211   3.599   2.406
   11ARG   HH11 2318   7.113   3.602   2.431
   11ARG   HH12 2319   7.276   3.578   2.479
   11ARG    NH2 2320   7.385   3.598   2.277
   11ARG   HH21 2321   7.427   3.574   2.189
   11ARG   HH22 2322   7.445   3.634   2.350
   11ARG      C 2323   6.792   3.225   1.988
   11ARG      O 2324   6.897   3.169   1.950
   12LYS      N 2325   6.692   3.256   1.906
   12LYS      H 2326   6.615   3.302   1.951
   12LYS     CA 2327   6.685   3.224   1.761
   12LYS     HA 2328   6.672   3.117   1.767
   12LYS     CB 2329   6.559   3.296   1.706
   12LYS    HB2 2330   6.477   3.297   1.777
   12LYS    HB3 2331   6.582   3.402   1.697
   12LYS     CG 2332   6.497   3.242   1.582
   12LYS    HG2 2333   6.572   3.232   1.503
   12LYS    HG3 2334   6.449   3.147   1.604
   12LYS     CD 2335   6.391   3.331   1.530
   12LYS    HD2 2336   6.308   3.336   1.601
   12LYS    HD3 2337   6.431   3.430   1.509
   12LYS     CE 2338   6.345   3.271   1.390
   12LYS    HE2 2339   6.432   3.259   1.327
   12LYS    HE3 2340   6.300   3.171   1.389
   12LYS     NZ 2341   6.253   3.362   1.318
   12LYS    HZ1 2342   6.158   3.362   1.350
   12LYS    HZ2 2343   6.284   3.458   1.312
   12LYS    HZ3 2344   6.245   3.322   1.225
   12LYS      C 2345   6.808   3.244   1.672
   12LYS      O 2346   6.874   3.345   1.684
   13NHE      N 2347   6.816   3.150   1.575
   13NHE    HN1 2348   6.755   3.068   1.571
   13NHE    HN2 2349   6.884   3.154   1.501
    1ILE      N 2350   4.962  11.121   7.843
    1ILE     H1 2351   4.934  11.169   7.760
    1ILE     H2 2352   4.970  11.177   7.928
    1ILE     H3 2353   4.878  11.067   7.857
    1ILE     CA 2354   5.069  11.020   7.838
    1ILE     HA 2355   5.058  10.956   7.925
    1ILE     CB 2356   5.059  10.936   7.704
    1ILE     HB 2357   4.961  10.898   7.677
    1ILE    CG2 2358   5.102  11.033   7.592
    1ILE   HG21 2359   5.208  11.022   7.568
    1ILE   HG22 2360   5.046  11.021   7.499
    1ILE   HG23 2361   5.089  11.136   7.622
    1ILE    CG1 2362   5.136  10.801   7.707
    1ILE   HG12 2363   5.122  10.749   7.802
    1ILE   HG13 2364   5.242  10.819   7.693
    1ILE    CD1 2365   5.091  10.702   7.597
    1ILE   HD11 2366   5.113  10.738   7.497
    1ILE   HD12 2367   5.158  10.616   7.601
    1ILE   HD13 2368   4.988  10.668   7.602
    1ILE      C 2369   5.205  11.082   7.865
    1ILE      O 2370   5.225  11.196   7.828
    2LEU      N 2371   5.295  11.007   7.930
    2LEU      H 2372   5.267  10.914   7.953
    2LEU     CA 2373   5.439  11.037   7.929
    2LEU     HA 2374   5.463  11.134   7.883
    2LEU     CB 2375   5.493  11.055   8.070
    2LEU    HB2 2376   5.519  10.955   8.105
    2LEU    HB3 2377   5.585  11.112   8.066
    2LEU     CG 2378   5.404  11.117   8.176
    2LEU     HG 2379   5.315  11.060   8.201
    2LEU    CD1 2380   5.480  11.111   8.316
    2LEU   HD11 2381   5.465  11.010   8.355
    2LEU   HD12 2382   5.586  11.132   8.301
    2LEU   HD13 2383   5.447  11.184   8.391
    2LEU    CD2 2384   5.373  11.259   8.148
    2LEU   HD21 2385   5.466  11.304   8.113
    2LEU   HD22 2386   5.309  11.262   8.060
    2LEU   HD23 2387   5.328  11.316   8.229
    2LEU      C 2388   5.523  10.932   7.855
    2LEU      O 2389   5.485  10.814   7.840
    3ARG      N 2390   5.630  10.978   7.794
    3ARG      H 2391   5.652  11.076   7.807
    3ARG     CA 2392   5.718  10.899   7.703
    3ARG     HA 2393   5.691  10.794   7.716
    3ARG     CB 2394   5.695  10.930   7.552
    3ARG    HB2 2395   5.742  10.850   7.497
    3ARG    HB3 2396   5.587  10.916   7.537
    3ARG     CG 2397   5.738  11.069   7.496
    3ARG    HG2 2398   5.696  11.152   7.551
    3ARG    HG3 2399   5.847  11.075   7.496
    3ARG     CD 2400   5.704  11.091   7.349
    3ARG    HD2 2401   5.775  11.165   7.310
    3ARG    HD3 2402   5.733  11.003   7.292
    3ARG     NE 2403   5.571  11.136   7.322
    3ARG     HE 2404   5.558  11.234   7.332
    3ARG     CZ 2405   5.472  11.062   7.271
    3ARG    NH1 2406   5.491  10.944   7.215
    3ARG   HH11 2407   5.572  10.888   7.237
    3ARG   HH12 2408   5.420  10.892   7.169
    3ARG    NH2 2409   5.349  11.120   7.269
    3ARG   HH21 2410   5.333  11.214   7.299
    3ARG   HH22 2411   5.275  11.068   7.222
    3ARG      C 2412   5.865  10.916   7.734
    3ARG      O 2413   5.907  11.011   7.798
    4TRP      N 2414   5.941  10.809   7.710
    4TRP      H 2415   5.904  10.733   7.655
    4TRP     CA 2416   6.084  10.799   7.751
    4TRP     HA 2417   6.124  10.899   7.772
    4TRP     CB 2418   6.086  10.717   7.887
    4TRP    HB2 2419   6.018  10.631   7.882
    4TRP    HB3 2420   6.188  10.692   7.917
    4TRP     CG 2421   6.032  10.791   8.005
    4TRP    CD1 2422   6.098  10.884   8.075
    4TRP    HD1 2423   6.198  10.921   8.056
    4TRP    NE1 2424   6.023  10.920   8.183
    4TRP    HE1 2425   6.053  10.995   8.245
    4TRP    CE2 2426   5.904  10.855   8.187
    4TRP    CZ2 2427   5.791  10.856   8.270
    4TRP    HZ2 2428   5.778  10.914   8.361
    4TRP    CH2 2429   5.680  10.781   8.233
    4TRP    HH2 2430   5.592  10.775   8.294
    4TRP    CZ3 2431   5.670  10.722   8.108
    4TRP    HZ3 2432   5.581  10.664   8.086
    4TRP    CE3 2433   5.781  10.716   8.018
    4TRP    HE3 2434   5.775  10.666   7.921
    4TRP    CD2 2435   5.902  10.780   8.059
    4TRP      C 2436   6.174  10.723   7.639
    4TRP      O 2437   6.116  10.662   7.549
    5PRO      N 2438   6.305  10.721   7.654
    5PRO     CD 2439   6.373  10.821   7.731
    5PRO    HD2 2440   6.399  10.785   7.830
    5PRO    HD3 2441   6.320  10.918   7.742
    5PRO     CG 2442   6.504  10.847   7.651
    5PRO    HG2 2443   6.585  10.887   7.713
    5PRO    HG3 2444   6.484  10.921   7.573
    5PRO     CB 2445   6.537  10.708   7.602
    5PRO    HB2 2446   6.576  10.645   7.683
    5PRO    HB3 2447   6.599  10.722   7.514
    5PRO     CA 2448   6.400  10.654   7.565
    5PRO     HA 2449   6.377  10.686   7.464
    5PRO      C 2450   6.395  10.500   7.571
    5PRO      O 2451   6.337  10.456   7.674
    6TRP      N 2452   6.463  10.419   7.491
    6TRP      H 2453   6.496  10.469   7.410
    6TRP     CA 2454   6.477  10.268   7.506
    6TRP     HA 2455   6.382  10.224   7.537
    6TRP     CB 2456   6.509  10.212   7.362
    6TRP    HB2 2457   6.594  10.268   7.323
    6TRP    HB3 2458   6.539  10.107   7.359
    6TRP     CG 2459   6.395  10.212   7.260
    6TRP    CD1 2460   6.371  10.309   7.167
    6TRP    HD1 2461   6.444  10.389   7.154
    6TRP    NE1 2462   6.251  10.292   7.094
    6TRP    HE1 2463   6.220  10.363   7.030
    6TRP    CE2 2464   6.183  10.191   7.155
    6TRP    CZ2 2465   6.056  10.135   7.134
    6TRP    HZ2 2466   5.985  10.185   7.070
    6TRP    CH2 2467   6.011  10.022   7.200
    6TRP    HH2 2468   5.909   9.994   7.180
    6TRP    CZ3 2469   6.087   9.959   7.300
    6TRP    HZ3 2470   6.050   9.875   7.357
    6TRP    CE3 2471   6.215  10.017   7.326
    6TRP    HE3 2472   6.281   9.971   7.398
    6TRP    CD2 2473   6.269  10.131   7.253
    6TRP      C 2474   6.576  10.223   7.605
    6TRP      O 2475   6.580  10.103   7.640
    7TRP      N 2476   6.660  10.316   7.655
    7TRP      H 2477   6.646  10.409   7.618
    7TRP     CA 2478   6.775  10.286   7.741
    7TRP     HA 2479   6.827  10.203   7.694
    7TRP     CB 2480   6.862  10.411   7.752
    7TRP    HB2 2481   6.837  10.466   7.842
    7TRP    HB3 2482   6.962  10.375   7.776
    7TRP     CG 2483   6.887  10.506   7.636
    7TRP    CD1 2484   6.934  10.634   7.644
    7TRP    HD1 2485   6.960  10.682   7.737
    7TRP    NE1 2486   6.946  10.698   7.524
    7TRP    HE1 2487   6.972  10.795   7.522
    7TRP    CE2 2488   6.915  10.606   7.423
    7TRP    CZ2 2489   6.920  10.622   7.286
    7TRP    HZ2 2490   6.950  10.718   7.246
    7TRP    CH2 2491   6.879  10.518   7.203
    7TRP    HH2 2492   6.888  10.532   7.095
    7TRP    CZ3 2493   6.836  10.397   7.260
    7TRP    HZ3 2494   6.796  10.318   7.197
    7TRP    CE3 2495   6.849  10.380   7.402
    7TRP    HE3 2496   6.838  10.282   7.446
    7TRP    CD2 2497   6.881  10.487   7.491
    7TRP      C 2498   6.722  10.238   7.873
    7TRP      O 2499   6.622  10.293   7.920
    8PRO      N 2500   6.792  10.151   7.950
    8PRO     CD 2501   6.926  10.100   7.928
    8PRO    HD2 2502   6.997  10.182   7.912
    8PRO    HD3 2503   6.922  10.032   7.842
    8PRO     CG 2504   6.965  10.035   8.059
    8PRO    HG2 2505   7.026  10.104   8.118
    8PRO    HG3 2506   7.028   9.949   8.040
    8PRO     CB 2507   6.832   9.995   8.127
    8PRO    HB2 2508   6.841  10.007   8.234
    8PRO    HB3 2509   6.797   9.898   8.087
    8PRO     CA 2510   6.734  10.100   8.077
    8PRO     HA 2511   6.642  10.046   8.061
    8PRO      C 2512   6.715  10.206   8.184
    8PRO      O 2513   6.815  10.267   8.232
    9TRP      N 2514   6.586  10.225   8.220
    9TRP      H 2515   6.514  10.176   8.173
    9TRP     CA 2516   6.541  10.313   8.331
    9TRP     HA 2517   6.616  10.323   8.411
    9TRP     CB 2518   6.506  10.452   8.268
    9TRP    HB2 2519   6.442  10.426   8.184
    9TRP    HB3 2520   6.451  10.508   8.344
    9TRP     CG 2521   6.622  10.533   8.205
    9TRP    CD1 2522   6.643  10.577   8.078
    9TRP    HD1 2523   6.575  10.570   7.996
    9TRP    NE1 2524   6.764  10.644   8.064
    9TRP    HE1 2525   6.802  10.689   7.982
    9TRP    CE2 2526   6.840  10.632   8.179
    9TRP    CZ2 2527   6.966  10.678   8.223
    9TRP    HZ2 2528   7.030  10.732   8.154
    9TRP    CH2 2529   6.999  10.672   8.357
    9TRP    HH2 2530   7.093  10.718   8.383
    9TRP    CZ3 2531   6.911  10.610   8.447
    9TRP    HZ3 2532   6.946  10.604   8.549
    9TRP    CE3 2533   6.786  10.558   8.405
    9TRP    HE3 2534   6.717  10.520   8.479
    9TRP    CD2 2535   6.751  10.565   8.269
    9TRP      C 2536   6.416  10.253   8.398
    9TRP      O 2537   6.314  10.234   8.337
   10ARG      N 2538   6.425  10.227   8.528
   10ARG      H 2539   6.519  10.226   8.566
   10ARG     CA 2540   6.317  10.185   8.606
   10ARG     HA 2541   6.259  10.113   8.549
   10ARG     CB 2542   6.372  10.129   8.735
   10ARG    HB2 2543   6.432  10.204   8.787
   10ARG    HB3 2544   6.285  10.117   8.800
   10ARG     CG 2545   6.451  10.000   8.726
   10ARG    HG2 2546   6.380   9.931   8.680
   10ARG    HG3 2547   6.530  10.000   8.652
   10ARG     CD 2548   6.502   9.949   8.867
   10ARG    HD2 2549   6.539   9.847   8.858
   10ARG    HD3 2550   6.574  10.019   8.911
   10ARG     NE 2551   6.385   9.928   8.959
   10ARG     HE 2552   6.321   9.857   8.929
   10ARG     CZ 2553   6.357  10.008   9.064
   10ARG    NH1 2554   6.404  10.130   9.068
   10ARG   HH11 2555   6.443  10.181   8.990
   10ARG   HH12 2556   6.392  10.177   9.157
   10ARG    NH2 2557   6.283   9.963   9.164
   10ARG   HH21 2558   6.260   9.867   9.180
   10ARG   HH22 2559   6.262  10.031   9.236
   10ARG      C 2560   6.225  10.304   8.636
   10ARG      O 2561   6.272  10.417   8.659
   11ARG      N 2562   6.091  10.289   8.637
   11ARG      H 2563   6.060  10.195   8.615
   11ARG     CA 2564   5.985  10.385   8.670
   11ARG     HA 2565   6.030  10.441   8.754
   11ARG     CB 2566   5.956  10.489   8.551
   11ARG    HB2 2567   5.864  10.545   8.574
   11ARG    HB3 2568   6.040  10.557   8.539
   11ARG     CG 2569   5.925  10.418   8.417
   11ARG    HG2 2570   6.008  10.351   8.398
   11ARG    HG3 2571   5.838  10.352   8.429
   11ARG     CD 2572   5.915  10.518   8.292
   11ARG    HD2 2573   5.815  10.556   8.302
   11ARG    HD3 2574   5.995  10.593   8.300
   11ARG     NE 2575   5.921  10.440   8.166
   11ARG     HE 2576   5.852  10.370   8.140
   11ARG     CZ 2577   6.027  10.433   8.089
   11ARG    NH1 2578   6.149  10.482   8.105
   11ARG   HH11 2579   6.175  10.543   8.182
   11ARG   HH12 2580   6.223  10.446   8.048
   11ARG    NH2 2581   6.019  10.360   7.982
   11ARG   HH21 2582   5.939  10.300   7.974
   11ARG   HH22 2583   6.077  10.374   7.900
   11ARG      C 2584   5.864  10.312   8.722
   11ARG      O 2585   5.839  10.202   8.669
   12LYS      N 2586   5.780  10.374   8.806
   12LYS      H 2587   5.814  10.463   8.838
   12LYS     CA 2588   5.650  10.320   8.853
   12LYS     HA 2589   5.685  10.241   8.917
   12LYS     CB 2590   5.581  10.435   8.932
   12LYS    HB2 2591   5.652  10.495   8.988
   12LYS    HB3 2592   5.543  10.508   8.861
   12LYS     CG 2593   5.479  10.398   9.033
   12LYS    HG2 2594   5.404  10.333   8.989
   12LYS    HG3 2595   5.529  10.350   9.118
   12LYS     CD 2596   5.409  10.516   9.087
   12LYS    HD2 2597   5.479  10.580   9.141
   12LYS    HD3 2598   5.360  10.571   9.007
   12LYS     CE 2599   5.293  10.462   9.180
   12LYS    HE2 2600   5.232  10.392   9.124
   12LYS    HE3 2601   5.320  10.404   9.269
   12LYS     NZ 2602   5.202  10.571   9.224
   12LYS    HZ1 2603   5.236  10.628   9.300
   12LYS    HZ2 2604   5.169  10.631   9.151
   12LYS    HZ3 2605   5.123  10.522   9.268
   12LYS      C 2606   5.554  10.252   8.755
   12LYS      O 2607   5.536  10.301   8.646
   13NHE      N 2608   5.487  10.150   8.813
   13NHE    HN1 2609   5.508  10.115   8.906
   13NHE    HN2 2610   5.412  10.101   8.766
    1ILE      N 2611  10.219   6.449  10.062
    1ILE     H1 2612  10.190   6.404   9.977
    1ILE     H2 2613  10.145   6.479  10.124
    1ILE     H3 2614  10.260   6.369  10.107
    1ILE     CA 2615  10.328   6.549  10.059
    1ILE     HA 2616  10.367   6.556  10.160
    1ILE     CB 2617  10.441   6.505   9.958
    1ILE     HB 2618  10.475   6.401   9.964
    1ILE    CG2 2619  10.379   6.523   9.818
    1ILE   HG21 2620  10.405   6.620   9.775
    1ILE   HG22 2621  10.408   6.446   9.746
    1ILE   HG23 2622  10.271   6.521   9.822
    1ILE    CG1 2623  10.578   6.576   9.979
    1ILE   HG12 2624  10.602   6.583  10.085
    1ILE   HG13 2625  10.573   6.676   9.938
    1ILE    CD1 2626  10.696   6.503   9.912
    1ILE   HD11 2627  10.688   6.501   9.803
    1ILE   HD12 2628  10.784   6.566   9.923
    1ILE   HD13 2629  10.718   6.403   9.948
    1ILE      C 2630  10.273   6.689  10.039
    1ILE      O 2631  10.174   6.703   9.969
    2LEU      N 2632  10.338   6.789  10.100
    2LEU      H 2633  10.420   6.764  10.152
    2LEU     CA 2634  10.322   6.930  10.060
    2LEU     HA 2635  10.243   6.945   9.985
    2LEU     CB 2636  10.276   7.016  10.175
    2LEU    HB2 2637  10.366   7.046  10.229
    2LEU    HB3 2638  10.230   7.107  10.136
    2LEU     CG 2639  10.181   6.957  10.279
    2LEU     HG 2640  10.222   6.874  10.336
    2LEU    CD1 2641  10.160   7.063  10.395
    2LEU   HD11 2642  10.246   7.055  10.461
    2LEU   HD12 2643  10.153   7.163  10.352
    2LEU   HD13 2644  10.068   7.051  10.453
    2LEU    CD2 2645  10.048   6.924  10.222
    2LEU   HD21 2646  10.022   7.008  10.156
    2LEU   HD22 2647  10.062   6.842  10.152
    2LEU   HD23 2648   9.969   6.902  10.292
    2LEU      C 2649  10.450   6.990   9.999
    2LEU      O 2650  10.564   6.946  10.024
    3ARG      N 2651  10.430   7.082   9.905
    3ARG      H 2652  10.335   7.110   9.887
    3ARG     CA 2653  10.537   7.143   9.822
    3ARG     HA 2654  10.634   7.117   9.867
    3ARG     CB 2655  10.542   7.086   9.677
    3ARG    HB2 2656  10.638   7.116   9.636
    3ARG    HB3 2657  10.550   6.977   9.690
    3ARG     CG 2658  10.427   7.119   9.578
    3ARG    HG2 2659  10.329   7.094   9.617
    3ARG    HG3 2660  10.431   7.225   9.553
    3ARG     CD 2661  10.438   7.052   9.442
    3ARG    HD2 2662  10.384   7.115   9.370
    3ARG    HD3 2663  10.540   7.064   9.405
    3ARG     NE 2664  10.390   6.918   9.434
    3ARG     HE 2665  10.291   6.911   9.421
    3ARG     CZ 2666  10.465   6.807   9.427
    3ARG    NH1 2667  10.594   6.809   9.401
    3ARG   HH11 2668  10.650   6.891   9.419
    3ARG   HH12 2669  10.649   6.728   9.387
    3ARG    NH2 2670  10.398   6.690   9.437
    3ARG   HH21 2671  10.298   6.684   9.444
    3ARG   HH22 2672  10.453   6.605   9.422
    3ARG      C 2673  10.527   7.294   9.815
    3ARG      O 2674  10.423   7.353   9.840
    4TRP      N 2675  10.643   7.358   9.803
    4TRP      H 2676  10.727   7.307   9.779
    4TRP     CA 2677  10.656   7.506   9.813
    4TRP     HA 2678  10.558   7.553   9.797
    4TRP     CB 2679  10.702   7.538   9.962
    4TRP    HB2 2680  10.780   7.468   9.994
    4TRP    HB3 2681  10.727   7.643   9.975
    4TRP     CG 2682  10.596   7.515  10.065
    4TRP    CD1 2683  10.495   7.599  10.092
    4TRP    HD1 2684  10.474   7.693  10.043
    4TRP    NE1 2685  10.427   7.553  10.200
    4TRP    HE1 2686  10.342   7.599  10.233
    4TRP    CE2 2687  10.477   7.436  10.247
    4TRP    CZ2 2688  10.445   7.346  10.350
    4TRP    HZ2 2689  10.366   7.357  10.423
    4TRP    CH2 2690  10.517   7.228  10.360
    4TRP    HH2 2691  10.500   7.155  10.437
    4TRP    CZ3 2692  10.604   7.186  10.259
    4TRP    HZ3 2693  10.657   7.093  10.274
    4TRP    CE3 2694  10.642   7.272  10.152
    4TRP    HE3 2695  10.714   7.242  10.076
    4TRP    CD2 2696  10.581   7.402  10.147
    4TRP      C 2697  10.765   7.565   9.708
    4TRP      O 2698  10.841   7.486   9.652
    5PRO      N 2699  10.776   7.696   9.694
    5PRO     CD 2700  10.666   7.783   9.725
    5PRO    HD2 2701  10.679   7.831   9.821
    5PRO    HD3 2702  10.565   7.737   9.722
    5PRO     CG 2703  10.673   7.893   9.614
    5PRO    HG2 2704  10.627   7.987   9.645
    5PRO    HG3 2705  10.619   7.857   9.526
    5PRO     CB 2706  10.822   7.908   9.597
    5PRO    HB2 2707  10.867   7.963   9.681
    5PRO    HB3 2708  10.837   7.949   9.498
    5PRO     CA 2709  10.871   7.765   9.607
    5PRO     HA 2710  10.863   7.720   9.508
    5PRO      C 2711  11.017   7.757   9.654
    5PRO      O 2712  11.029   7.723   9.775
    6TRP      N 2713  11.122   7.801   9.586
    6TRP      H 2714  11.096   7.816   9.489
    6TRP     CA 2715  11.265   7.813   9.636
    6TRP     HA 2716  11.291   7.727   9.697
    6TRP     CB 2717  11.358   7.809   9.508
    6TRP    HB2 2718  11.322   7.884   9.438
    6TRP    HB3 2719  11.463   7.834   9.526
    6TRP     CG 2720  11.372   7.674   9.437
    6TRP    CD1 2721  11.300   7.632   9.330
    6TRP    HD1 2722  11.233   7.703   9.280
    6TRP    NE1 2723  11.323   7.497   9.292
    6TRP    HE1 2724  11.268   7.454   9.220
    6TRP    CE2 2725  11.399   7.442   9.390
    6TRP    CZ2 2726  11.447   7.312   9.413
    6TRP    HZ2 2727  11.407   7.230   9.355
    6TRP    CH2 2728  11.534   7.281   9.515
    6TRP    HH2 2729  11.558   7.176   9.526
    6TRP    CZ3 2730  11.578   7.376   9.609
    6TRP    HZ3 2731  11.641   7.350   9.692
    6TRP    CE3 2732  11.527   7.509   9.590
    6TRP    HE3 2733  11.560   7.588   9.656
    6TRP    CD2 2734  11.441   7.547   9.479
    6TRP      C 2735  11.293   7.931   9.719
    6TRP      O 2736  11.400   7.940   9.783
    7TRP      N 2737  11.198   8.028   9.723
    7TRP      H 2738  11.117   8.008   9.667
    7TRP     CA 2739  11.217   8.159   9.786
    7TRP     HA 2740  11.314   8.195   9.753
    7TRP     CB 2741  11.101   8.250   9.745
    7TRP    HB2 2742  11.024   8.248   9.821
    7TRP    HB3 2743  11.139   8.352   9.755
    7TRP     CG 2744  11.041   8.250   9.606
    7TRP    CD1 2745  10.920   8.301   9.569
    7TRP    HD1 2746  10.853   8.350   9.639
    7TRP    NE1 2747  10.889   8.287   9.437
    7TRP    HE1 2748  10.798   8.315   9.404
    7TRP    CE2 2749  10.999   8.230   9.373
    7TRP    CZ2 2750  11.019   8.204   9.239
    7TRP    HZ2 2751  10.939   8.226   9.169
    7TRP    CH2 2752  11.136   8.140   9.197
    7TRP    HH2 2753  11.150   8.124   9.091
    7TRP    CZ3 2754  11.234   8.108   9.292
    7TRP    HZ3 2755  11.323   8.052   9.262
    7TRP    CE3 2756  11.217   8.154   9.427
    7TRP    HE3 2757  11.299   8.151   9.497
    7TRP    CD2 2758  11.095   8.209   9.475
    7TRP      C 2759  11.225   8.137   9.935
    7TRP      O 2760  11.152   8.052   9.986
    8PRO      N 2761  11.297   8.220  10.015
    8PRO     CD 2762  11.364   8.344   9.977
    8PRO    HD2 2763  11.295   8.411   9.925
    8PRO    HD3 2764  11.450   8.317   9.916
    8PRO     CG 2765  11.398   8.410  10.109
    8PRO    HG2 2766  11.322   8.485  10.133
    8PRO    HG3 2767  11.491   8.464  10.100
    8PRO     CB 2768  11.407   8.295  10.213
    8PRO    HB2 2769  11.370   8.330  10.309
    8PRO    HB3 2770  11.507   8.249  10.209
    8PRO     CA 2771  11.309   8.193  10.160
    8PRO     HA 2772  11.357   8.097  10.180
    8PRO      C 2773  11.179   8.202  10.237
    8PRO      O 2774  11.117   8.313  10.244
    9TRP      N 2775  11.139   8.086  10.294
    9TRP      H 2776  11.192   8.003  10.279
    9TRP     CA 2777  11.023   8.072  10.386
    9TRP     HA 2778  11.001   8.163  10.441
    9TRP     CB 2779  10.902   8.027  10.297
    9TRP    HB2 2780  10.941   7.944  10.240
    9TRP    HB3 2781  10.824   7.993  10.366
    9TRP     CG 2782  10.849   8.127  10.192
    9TRP    CD1 2783  10.841   8.120  10.056
    9TRP    HD1 2784  10.862   8.034   9.996
    9TRP    NE1 2785  10.790   8.236   9.998
    9TRP    HE1 2786  10.771   8.255   9.901
    9TRP    CE2 2787  10.781   8.337  10.093
    9TRP    CZ2 2788  10.737   8.471  10.094
    9TRP    HZ2 2789  10.708   8.518  10.002
    9TRP    CH2 2790  10.713   8.534  10.215
    9TRP    HH2 2791  10.671   8.633  10.207
    9TRP    CZ3 2792  10.743   8.468  10.335
    9TRP    HZ3 2793  10.725   8.525  10.425
    9TRP    CE3 2794  10.792   8.334  10.337
    9TRP    HE3 2795  10.803   8.284  10.431
    9TRP    CD2 2796  10.815   8.269  10.215
    9TRP      C 2797  11.053   7.964  10.491
    9TRP      O 2798  11.077   7.849  10.461
   10ARG      N 2799  11.046   8.002  10.618
   10ARG      H 2800  11.047   8.103  10.634
   10ARG     CA 2801  11.058   7.914  10.726
   10ARG     HA 2802  11.136   7.842  10.705
   10ARG     CB 2803  11.085   7.997  10.850
   10ARG    HB2 2804  11.005   8.070  10.866
   10ARG    HB3 2805  11.073   7.927  10.934
   10ARG     CG 2806  11.219   8.067  10.858
   10ARG    HG2 2807  11.291   7.985  10.849
   10ARG    HG3 2808  11.244   8.127  10.771
   10ARG     CD 2809  11.238   8.148  10.993
   10ARG    HD2 2810  11.341   8.179  11.003
   10ARG    HD3 2811  11.166   8.230  11.000
   10ARG     NE 2812  11.225   8.056  11.110
   10ARG     HE 2813  11.295   7.984  11.116
   10ARG     CZ 2814  11.119   8.056  11.194
   10ARG    NH1 2815  11.005   8.106  11.156
   10ARG   HH11 2816  10.978   8.127  11.060
   10ARG   HH12 2817  10.936   8.116  11.229
   10ARG    NH2 2818  11.130   8.006  11.316
   10ARG   HH21 2819  11.217   7.984  11.361
   10ARG   HH22 2820  11.046   8.004  11.371
   10ARG      C 2821  10.927   7.837  10.744
   10ARG      O 2822  10.816   7.891  10.726
   11ARG      N 2823  10.929   7.706  10.778
   11ARG      H 2824  11.022   7.668  10.788
   11ARG     CA 2825  10.818   7.614  10.806
   11ARG     HA 2826  10.748   7.679  10.861
   11ARG     CB 2827  10.745   7.561  10.674
   11ARG    HB2 2828  10.677   7.479  10.701
   11ARG    HB3 2829  10.690   7.642  10.626
   11ARG     CG 2830  10.844   7.497  10.574
   11ARG    HG2 2831  10.921   7.571  10.555
   11ARG    HG3 2832  10.896   7.413  10.621
   11ARG     CD 2833  10.777   7.461  10.432
   11ARG    HD2 2834  10.729   7.368  10.454
   11ARG    HD3 2835  10.711   7.542  10.403
   11ARG     NE 2836  10.885   7.435  10.333
   11ARG     HE 2837  10.952   7.359  10.342
   11ARG     CZ 2838  10.920   7.519  10.239
   11ARG    NH1 2839  10.880   7.643  10.215
   11ARG   HH11 2840  10.805   7.688  10.265
   11ARG   HH12 2841  10.936   7.700  10.155
   11ARG    NH2 2842  11.016   7.483  10.159
   11ARG   HH21 2843  11.069   7.402  10.186
   11ARG   HH22 2844  11.028   7.521  10.066
   11ARG      C 2845  10.865   7.506  10.902
   11ARG      O 2846  10.982   7.466  10.885
   12LYS      N 2847  10.777   7.446  10.982
   12LYS      H 2848  10.686   7.490  10.982
   12LYS     CA 2849  10.805   7.329  11.069
   12LYS     HA 2850  10.869   7.376  11.143
   12LYS     CB 2851  10.668   7.285  11.129
   12LYS    HB2 2852  10.603   7.369  11.150
   12LYS    HB3 2853  10.612   7.234  11.051
   12LYS     CG 2854  10.670   7.209  11.256
   12LYS    HG2 2855  10.736   7.123  11.248
   12LYS    HG3 2856  10.699   7.275  11.338
   12LYS     CD 2857  10.535   7.157  11.290
   12LYS    HD2 2858  10.467   7.239  11.310
   12LYS    HD3 2859  10.498   7.092  11.212
   12LYS     CE 2860  10.554   7.064  11.418
   12LYS    HE2 2861  10.630   6.990  11.397
   12LYS    HE3 2862  10.590   7.110  11.511
   12LYS     NZ 2863  10.430   6.989  11.451
   12LYS    HZ1 2864  10.359   7.042  11.499
   12LYS    HZ2 2865  10.387   6.942  11.373
   12LYS    HZ3 2866  10.459   6.922  11.522
   12LYS      C 2867  10.886   7.211  11.016
   12LYS      O 2868  10.864   7.169  10.904
   13NHE      N 2869  10.964   7.156  11.112
   13NHE    HN1 2870  10.976   7.197  11.204
   13NHE    HN2 2871  11.016   7.070  11.097
    1ILE      N 2872   4.657   2.015   5.772
    1ILE     H1 2873   4.659   1.997   5.871
    1ILE     H2 2874   4.620   1.940   5.713
    1ILE     H3 2875   4.585   2.085   5.772
    1ILE     CA 2876   4.772   2.080   5.707
    1ILE     HA 2877   4.737   2.123   5.614
    1ILE     CB 2878   4.833   2.192   5.801
    1ILE     HB 2879   4.762   2.261   5.847
    1ILE    CG2 2880   4.902   2.116   5.915
    1ILE   HG21 2881   5.008   2.102   5.896
    1ILE   HG22 2882   4.892   2.164   6.013
    1ILE   HG23 2883   4.861   2.016   5.927
    1ILE    CG1 2884   4.923   2.296   5.728
    1ILE   HG12 2885   4.879   2.326   5.632
    1ILE   HG13 2886   5.020   2.252   5.709
    1ILE    CD1 2887   4.944   2.426   5.808
    1ILE   HD11 2888   4.999   2.409   5.901
    1ILE   HD12 2889   5.017   2.486   5.754
    1ILE   HD13 2890   4.856   2.485   5.829
    1ILE      C 2891   4.872   1.978   5.655
    1ILE      O 2892   4.886   1.874   5.718
    2LEU      N 2893   4.937   2.007   5.543
    2LEU      H 2894   4.918   2.098   5.503
    2LEU     CA 2895   5.061   1.939   5.503
    2LEU     HA 2896   5.087   1.853   5.566
    2LEU     CB 2897   5.049   1.876   5.366
    2LEU    HB2 2898   5.073   1.954   5.293
    2LEU    HB3 2899   5.123   1.797   5.355
    2LEU     CG 2900   4.914   1.818   5.323
    2LEU     HG 2901   4.833   1.891   5.314
    2LEU    CD1 2902   4.925   1.771   5.172
    2LEU   HD11 2903   4.912   1.859   5.110
    2LEU   HD12 2904   5.022   1.725   5.155
    2LEU   HD13 2905   4.852   1.694   5.141
    2LEU    CD2 2906   4.874   1.700   5.405
    2LEU   HD21 2907   4.965   1.641   5.418
    2LEU   HD22 2908   4.854   1.736   5.506
    2LEU   HD23 2909   4.791   1.641   5.368
    2LEU      C 2910   5.185   2.031   5.505
    2LEU      O 2911   5.177   2.155   5.493
    3ARG      N 2912   5.299   1.972   5.536
    3ARG      H 2913   5.297   1.872   5.548
    3ARG     CA 2914   5.427   2.042   5.559
    3ARG     HA 2915   5.416   2.145   5.523
    3ARG     CB 2916   5.465   2.055   5.710
    3ARG    HB2 2917   5.544   2.129   5.716
    3ARG    HB3 2918   5.378   2.102   5.756
    3ARG     CG 2919   5.505   1.926   5.789
    3ARG    HG2 2920   5.430   1.848   5.782
    3ARG    HG3 2921   5.601   1.890   5.753
    3ARG     CD 2922   5.531   1.949   5.937
    3ARG    HD2 2923   5.599   1.869   5.970
    3ARG    HD3 2924   5.595   2.037   5.948
    3ARG     NE 2925   5.416   1.951   6.022
    3ARG     HE 2926   5.384   1.860   6.049
    3ARG     CZ 2927   5.361   2.059   6.078
    3ARG    NH1 2928   5.422   2.177   6.082
    3ARG   HH11 2929   5.494   2.201   6.017
    3ARG   HH12 2930   5.386   2.256   6.131
    3ARG    NH2 2931   5.243   2.040   6.141
    3ARG   HH21 2932   5.200   1.950   6.151
    3ARG   HH22 2933   5.205   2.120   6.192
    3ARG      C 2934   5.544   1.979   5.486
    3ARG      O 2935   5.539   1.863   5.446
    4TRP      N 2936   5.640   2.063   5.446
    4TRP      H 2937   5.642   2.156   5.483
    4TRP     CA 2938   5.751   2.023   5.356
    4TRP     HA 2939   5.762   1.914   5.356
    4TRP     CB 2940   5.710   2.067   5.209
    4TRP    HB2 2941   5.666   2.167   5.210
    4TRP    HB3 2942   5.793   2.055   5.139
    4TRP     CG 2943   5.600   1.986   5.149
    4TRP    CD1 2944   5.615   1.865   5.094
    4TRP    HD1 2945   5.707   1.807   5.087
    4TRP    NE1 2946   5.497   1.827   5.037
    4TRP    HE1 2947   5.486   1.735   4.996
    4TRP    CE2 2948   5.400   1.920   5.054
    4TRP    CZ2 2949   5.264   1.931   5.021
    4TRP    HZ2 2950   5.205   1.860   4.964
    4TRP    CH2 2951   5.193   2.041   5.068
    4TRP    HH2 2952   5.089   2.058   5.044
    4TRP    CZ3 2953   5.246   2.128   5.163
    4TRP    HZ3 2954   5.184   2.212   5.194
    4TRP    CE3 2955   5.383   2.123   5.201
    4TRP    HE3 2956   5.426   2.194   5.272
    4TRP    CD2 2957   5.464   2.020   5.143
    4TRP      C 2958   5.891   2.094   5.399
    4TRP      O 2959   5.888   2.188   5.479
    5PRO      N 2960   6.003   2.056   5.339
    5PRO     CD 2961   6.014   1.926   5.280
    5PRO    HD2 2962   6.003   1.930   5.172
    5PRO    HD3 2963   5.946   1.848   5.320
    5PRO     CG 2964   6.161   1.884   5.312
    5PRO    HG2 2965   6.200   1.809   5.242
    5PRO    HG3 2966   6.163   1.838   5.412
    5PRO     CB 2967   6.233   2.015   5.299
    5PRO    HB2 2968   6.245   2.045   5.194
    5PRO    HB3 2969   6.324   2.005   5.359
    5PRO     CA 2970   6.135   2.112   5.362
    5PRO     HA 2971   6.152   2.112   5.469
    5PRO      C 2972   6.154   2.256   5.309
    5PRO      O 2973   6.066   2.289   5.225
    6TRP      N 2974   6.261   2.331   5.329
    6TRP      H 2975   6.316   2.293   5.405
    6TRP     CA 2976   6.292   2.464   5.262
    6TRP     HA 2977   6.202   2.524   5.254
    6TRP     CB 2978   6.391   2.541   5.359
    6TRP    HB2 2979   6.474   2.474   5.382
    6TRP    HB3 2980   6.436   2.631   5.318
    6TRP     CG 2981   6.331   2.596   5.489
    6TRP    CD1 2982   6.333   2.534   5.610
    6TRP    HD1 2983   6.390   2.442   5.622
    6TRP    NE1 2984   6.258   2.600   5.711
    6TRP    HE1 2985   6.245   2.558   5.801
    6TRP    CE2 2986   6.189   2.699   5.649
    6TRP    CZ2 2987   6.093   2.792   5.694
    6TRP    HZ2 2988   6.048   2.779   5.792
    6TRP    CH2 2989   6.044   2.894   5.615
    6TRP    HH2 2990   5.966   2.954   5.659
    6TRP    CZ3 2991   6.081   2.908   5.481
    6TRP    HZ3 2992   6.037   2.984   5.417
    6TRP    CE3 2993   6.175   2.812   5.432
    6TRP    HE3 2994   6.211   2.821   5.330
    6TRP    CD2 2995   6.235   2.709   5.514
    6TRP      C 2996   6.347   2.456   5.126
    6TRP      O 2997   6.356   2.558   5.055
    7TRP      N 2998   6.386   2.334   5.083
    7TRP      H 2999   6.373   2.260   5.150
    7TRP     CA 3000   6.458   2.310   4.957
    7TRP     HA 3001   6.538   2.384   4.953
    7TRP     CB 3002   6.511   2.166   4.957
    7TRP    HB2 3003   6.441   2.101   4.905
    7TRP    HB3 3004   6.596   2.166   4.890
    7TRP     CG 3005   6.565   2.098   5.081
    7TRP    CD1 3006   6.583   1.964   5.099
    7TRP    HD1 3007   6.559   1.890   5.023
    7TRP    NE1 3008   6.634   1.928   5.221
    7TRP    HE1 3009   6.641   1.830   5.245
    7TRP    CE2 3010   6.663   2.045   5.291
    7TRP    CZ2 3011   6.722   2.061   5.414
    7TRP    HZ2 3012   6.750   1.972   5.471
    7TRP    CH2 3013   6.737   2.189   5.469
    7TRP    HH2 3014   6.787   2.198   5.564
    7TRP    CZ3 3015   6.695   2.300   5.394
    7TRP    HZ3 3016   6.698   2.400   5.438
    7TRP    CE3 3017   6.650   2.280   5.260
    7TRP    HE3 3018   6.638   2.363   5.193
    7TRP    CD2 3019   6.624   2.151   5.205
    7TRP      C 3020   6.363   2.339   4.844
    7TRP      O 3021   6.245   2.305   4.856
    8PRO      N 3022   6.408   2.383   4.723
    8PRO     CD 3023   6.546   2.398   4.680
    8PRO    HD2 3024   6.602   2.305   4.696
    8PRO    HD3 3025   6.589   2.482   4.734
    8PRO     CG 3026   6.537   2.417   4.530
    8PRO    HG2 3027   6.555   2.323   4.479
    8PRO    HG3 3028   6.615   2.484   4.497
    8PRO     CB 3029   6.396   2.476   4.504
    8PRO    HB2 3030   6.357   2.438   4.410
    8PRO    HB3 3031   6.397   2.585   4.520
    8PRO     CA 3032   6.312   2.417   4.616
    8PRO     HA 3033   6.245   2.497   4.645
    8PRO      C 3034   6.233   2.299   4.562
    8PRO      O 3035   6.293   2.203   4.505
    9TRP      N 3036   6.099   2.309   4.582
    9TRP      H 3037   6.062   2.386   4.633
    9TRP     CA 3038   5.998   2.214   4.529
    9TRP     HA 3039   6.030   2.166   4.436
    9TRP     CB 3040   5.970   2.109   4.642
    9TRP    HB2 3041   5.952   2.170   4.729
    9TRP    HB3 3042   5.880   2.055   4.612
    9TRP     CG 3043   6.086   2.015   4.682
    9TRP    CD1 3044   6.152   1.998   4.801
    9TRP    HD1 3045   6.126   2.043   4.894
    9TRP    NE1 3046   6.254   1.905   4.793
    9TRP    HE1 3047   6.315   1.871   4.866
    9TRP    CE2 3048   6.277   1.868   4.661
    9TRP    CZ2 3049   6.363   1.780   4.593
    9TRP    HZ2 3050   6.440   1.727   4.648
    9TRP    CH2 3051   6.338   1.745   4.462
    9TRP    HH2 3052   6.404   1.671   4.421
    9TRP    CZ3 3053   6.232   1.807   4.393
    9TRP    HZ3 3054   6.221   1.779   4.290
    9TRP    CE3 3055   6.146   1.901   4.457
    9TRP    HE3 3056   6.060   1.938   4.405
    9TRP    CD2 3057   6.170   1.935   4.592
    9TRP      C 3058   5.868   2.289   4.495
    9TRP      O 3059   5.806   2.349   4.579
   10ARG      N 3060   5.827   2.281   4.369
   10ARG      H 3061   5.895   2.247   4.302
   10ARG     CA 3062   5.704   2.332   4.325
   10ARG     HA 3063   5.688   2.429   4.372
   10ARG     CB 3064   5.709   2.339   4.173
   10ARG    HB2 3065   5.729   2.240   4.131
   10ARG    HB3 3066   5.606   2.360   4.143
   10ARG     CG 3067   5.805   2.439   4.113
   10ARG    HG2 3068   5.771   2.535   4.156
   10ARG    HG3 3069   5.906   2.435   4.150
   10ARG     CD 3070   5.800   2.441   3.954
   10ARG    HD2 3071   5.854   2.527   3.916
   10ARG    HD3 3072   5.834   2.345   3.913
   10ARG     NE 3073   5.661   2.472   3.908
   10ARG     HE 3074   5.627   2.563   3.933
   10ARG     CZ 3075   5.579   2.381   3.851
   10ARG    NH1 3076   5.599   2.253   3.870
   10ARG   HH11 3077   5.657   2.213   3.942
   10ARG   HH12 3078   5.543   2.192   3.812
   10ARG    NH2 3079   5.478   2.420   3.775
   10ARG   HH21 3080   5.467   2.512   3.738
   10ARG   HH22 3081   5.418   2.347   3.741
   10ARG      C 3082   5.590   2.240   4.368
   10ARG      O 3083   5.603   2.116   4.369
   11ARG      N 3084   5.473   2.292   4.410
   11ARG      H 3085   5.470   2.392   4.410
   11ARG     CA 3086   5.348   2.224   4.450
   11ARG     HA 3087   5.344   2.140   4.378
   11ARG     CB 3088   5.354   2.162   4.598
   11ARG    HB2 3089   5.254   2.131   4.628
   11ARG    HB3 3090   5.424   2.078   4.601
   11ARG     CG 3091   5.395   2.268   4.703
   11ARG    HG2 3092   5.488   2.312   4.669
   11ARG    HG3 3093   5.323   2.351   4.702
   11ARG     CD 3094   5.421   2.207   4.849
   11ARG    HD2 3095   5.321   2.197   4.887
   11ARG    HD3 3096   5.477   2.113   4.838
   11ARG     NE 3097   5.492   2.307   4.932
   11ARG     HE 3098   5.453   2.397   4.957
   11ARG     CZ 3099   5.620   2.301   4.960
   11ARG    NH1 3100   5.714   2.218   4.920
   11ARG   HH11 3101   5.695   2.136   4.863
   11ARG   HH12 3102   5.810   2.244   4.932
   11ARG    NH2 3103   5.670   2.396   5.035
   11ARG   HH21 3104   5.611   2.477   5.050
   11ARG   HH22 3105   5.753   2.386   5.090
   11ARG      C 3106   5.230   2.314   4.422
   11ARG      O 3107   5.249   2.435   4.443
   12LYS      N 3108   5.110   2.260   4.398
   12LYS      H 3109   5.112   2.161   4.386
   12LYS     CA 3110   4.983   2.336   4.385
   12LYS     HA 3111   5.001   2.385   4.291
   12LYS     CB 3112   4.870   2.229   4.377
   12LYS    HB2 3113   4.900   2.141   4.322
   12LYS    HB3 3114   4.854   2.189   4.476
   12LYS     CG 3115   4.743   2.269   4.312
   12LYS    HG2 3116   4.704   2.362   4.356
   12LYS    HG3 3117   4.759   2.280   4.204
   12LYS     CD 3118   4.638   2.166   4.327
   12LYS    HD2 3119   4.667   2.075   4.276
   12LYS    HD3 3120   4.618   2.147   4.433
   12LYS     CE 3121   4.504   2.228   4.268
   12LYS    HE2 3122   4.484   2.323   4.316
   12LYS    HE3 3123   4.501   2.253   4.162
   12LYS     NZ 3124   4.386   2.142   4.297
   12LYS    HZ1 3125   4.376   2.061   4.237
   12LYS    HZ2 3126   4.377   2.112   4.392
   12LYS    HZ3 3127   4.306   2.199   4.270
   12LYS      C 3128   4.950   2.449   4.483
   12LYS      O 3129   4.971   2.433   4.601
   13NHE      N 3130   4.882   2.550   4.423
   13NHE    HN1 3131   4.868   2.554   4.322
   13NHE    HN2 3132   4.843   2.627   4.475
    1ILE      N 3133   7.692   5.763  10.326
    1ILE     H1 3134   7.711   5.680  10.379
    1ILE     H2 3135   7.761   5.838  10.335
    1ILE     H3 3136   7.708   5.725  10.234
    1ILE     CA 3137   7.556   5.818  10.320
    1ILE     HA 3138   7.550   5.881  10.233
    1ILE     CB 3139   7.449   5.701  10.312
    1ILE     HB 3140   7.469   5.621  10.240
    1ILE    CG2 3141   7.450   5.636  10.451
    1ILE   HG21 3142   7.372   5.676  10.515
    1ILE   HG22 3143   7.439   5.526  10.449
    1ILE   HG23 3144   7.543   5.654  10.503
    1ILE    CG1 3145   7.309   5.745  10.260
    1ILE   HG12 3146   7.318   5.814  10.176
    1ILE   HG13 3147   7.256   5.794  10.341
    1ILE    CD1 3148   7.222   5.627  10.211
    1ILE   HD11 3149   7.197   5.558  10.291
    1ILE   HD12 3150   7.124   5.667  10.189
    1ILE   HD13 3151   7.260   5.571  10.126
    1ILE      C 3152   7.532   5.919  10.431
    1ILE      O 3153   7.588   5.902  10.538
    2LEU      N 3154   7.452   6.022  10.403
    2LEU      H 3155   7.410   6.023  10.312
    2LEU     CA 3156   7.389   6.104  10.508
    2LEU     HA 3157   7.426   6.082  10.609
    2LEU     CB 3158   7.424   6.251  10.493
    2LEU    HB2 3159   7.352   6.293  10.422
    2LEU    HB3 3160   7.410   6.301  10.588
    2LEU     CG 3161   7.562   6.289  10.440
    2LEU     HG 3162   7.583   6.257  10.337
    2LEU    CD1 3163   7.568   6.446  10.421
    2LEU   HD11 3164   7.520   6.469  10.325
    2LEU   HD12 3165   7.516   6.495  10.503
    2LEU   HD13 3166   7.668   6.491  10.421
    2LEU    CD2 3167   7.671   6.251  10.533
    2LEU   HD21 3168   7.635   6.276  10.633
    2LEU   HD22 3169   7.675   6.141  10.535
    2LEU   HD23 3170   7.769   6.292  10.513
    2LEU      C 3171   7.236   6.089  10.514
    2LEU      O 3172   7.168   6.053  10.416
    3ARG      N 3173   7.183   6.101  10.634
    3ARG      H 3174   7.245   6.127  10.710
    3ARG     CA 3175   7.040   6.076  10.667
    3ARG     HA 3176   6.985   6.069  10.573
    3ARG     CB 3177   7.017   5.939  10.739
    3ARG    HB2 3178   6.910   5.920  10.733
    3ARG    HB3 3179   7.063   5.865  10.673
    3ARG     CG 3180   7.069   5.920  10.885
    3ARG    HG2 3181   7.174   5.943  10.896
    3ARG    HG3 3182   7.010   5.983  10.952
    3ARG     CD 3183   7.048   5.781  10.942
    3ARG    HD2 3184   7.044   5.791  11.051
    3ARG    HD3 3185   6.946   5.749  10.921
    3ARG     NE 3186   7.146   5.684  10.908
    3ARG     HE 3187   7.228   5.687  10.965
    3ARG     CZ 3188   7.131   5.583  10.820
    3ARG    NH1 3189   7.014   5.547  10.773
    3ARG   HH11 3190   6.936   5.610  10.771
    3ARG   HH12 3191   7.000   5.467  10.714
    3ARG    NH2 3192   7.243   5.513  10.791
    3ARG   HH21 3193   7.332   5.530  10.834
    3ARG   HH22 3194   7.231   5.431  10.732
    3ARG      C 3195   6.978   6.186  10.751
    3ARG      O 3196   7.047   6.264  10.816
    4TRP      N 3197   6.848   6.207  10.731
    4TRP      H 3198   6.794   6.139  10.679
    4TRP     CA 3199   6.774   6.323  10.789
    4TRP     HA 3200   6.830   6.364  10.873
    4TRP     CB 3201   6.767   6.434  10.676
    4TRP    HB2 3202   6.743   6.389  10.579
    4TRP    HB3 3203   6.702   6.516  10.705
    4TRP     CG 3204   6.897   6.501  10.647
    4TRP    CD1 3205   6.952   6.598  10.721
    4TRP    HD1 3206   6.913   6.640  10.812
    4TRP    NE1 3207   7.064   6.644  10.658
    4TRP    HE1 3208   7.124   6.714  10.701
    4TRP    CE2 3209   7.088   6.578  10.541
    4TRP    CZ2 3210   7.187   6.582  10.442
    4TRP    HZ2 3211   7.271   6.650  10.437
    4TRP    CH2 3212   7.183   6.487  10.341
    4TRP    HH2 3213   7.254   6.486  10.260
    4TRP    CZ3 3214   7.098   6.377  10.346
    4TRP    HZ3 3215   7.100   6.307  10.263
    4TRP    CE3 3216   6.995   6.367  10.443
    4TRP    HE3 3217   6.925   6.283  10.445
    4TRP    CD2 3218   6.986   6.471  10.542
    4TRP      C 3219   6.624   6.280  10.835
    4TRP      O 3220   6.579   6.172  10.797
    5PRO      N 3221   6.552   6.367  10.903
    5PRO     CD 3222   6.614   6.471  10.980
    5PRO    HD2 3223   6.611   6.567  10.929
    5PRO    HD3 3224   6.718   6.452  11.012
    5PRO     CG 3225   6.525   6.482  11.108
    5PRO    HG2 3226   6.531   6.579  11.156
    5PRO    HG3 3227   6.559   6.407  11.180
    5PRO     CB 3228   6.388   6.457  11.050
    5PRO    HB2 3229   6.351   6.544  10.995
    5PRO    HB3 3230   6.327   6.421  11.133
    5PRO     CA 3231   6.415   6.348  10.948
    5PRO     HA 3232   6.411   6.252  11.000
    5PRO      C 3233   6.309   6.347  10.836
    5PRO      O 3234   6.352   6.397  10.728
    6TRP      N 3235   6.181   6.319  10.852
    6TRP      H 3236   6.166   6.272  10.940
    6TRP     CA 3237   6.071   6.336  10.748
    6TRP     HA 3238   6.107   6.306  10.649
    6TRP     CB 3239   5.956   6.235  10.788
    6TRP    HB2 3240   5.931   6.253  10.893
    6TRP    HB3 3241   5.862   6.247  10.733
    6TRP     CG 3242   5.983   6.086  10.764
    6TRP    CD1 3243   6.030   5.998  10.858
    6TRP    HD1 3244   6.039   6.031  10.961
    6TRP    NE1 3245   6.059   5.869  10.807
    6TRP    HE1 3246   6.103   5.800  10.865
    6TRP    CE2 3247   6.050   5.878  10.671
    6TRP    CZ2 3248   6.076   5.787  10.567
    6TRP    HZ2 3249   6.128   5.695  10.588
    6TRP    CH2 3250   6.047   5.814  10.435
    6TRP    HH2 3251   6.078   5.739  10.364
    6TRP    CZ3 3252   5.997   5.938  10.393
    6TRP    HZ3 3253   5.981   5.962  10.289
    6TRP    CE3 3254   5.974   6.034  10.497
    6TRP    HE3 3255   5.931   6.130  10.472
    6TRP    CD2 3256   5.995   6.006  10.638
    6TRP      C 3257   6.019   6.473  10.732
    6TRP      O 3258   5.945   6.502  10.636
    7TRP      N 3259   6.057   6.564  10.825
    7TRP      H 3260   6.117   6.527  10.897
    7TRP     CA 3261   6.001   6.699  10.835
    7TRP     HA 3262   5.894   6.689  10.826
    7TRP     CB 3263   6.045   6.761  10.968
    7TRP    HB2 3264   6.134   6.821  10.954
    7TRP    HB3 3265   5.970   6.837  10.991
    7TRP     CG 3266   6.053   6.681  11.097
    7TRP    CD1 3267   6.120   6.717  11.210
    7TRP    HD1 3268   6.175   6.809  11.220
    7TRP    NE1 3269   6.112   6.627  11.312
    7TRP    HE1 3270   6.166   6.642  11.397
    7TRP    CE2 3271   6.026   6.525  11.273
    7TRP    CZ2 3272   5.981   6.416  11.345
    7TRP    HZ2 3273   6.016   6.402  11.446
    7TRP    CH2 3274   5.898   6.321  11.283
    7TRP    HH2 3275   5.861   6.239  11.342
    7TRP    CZ3 3276   5.859   6.342  11.149
    7TRP    HZ3 3277   5.801   6.266  11.097
    7TRP    CE3 3278   5.894   6.465  11.085
    7TRP    HE3 3279   5.848   6.494  10.992
    7TRP    CD2 3280   5.986   6.558  11.141
    7TRP      C 3281   6.050   6.777  10.715
    7TRP      O 3282   6.165   6.759  10.676
    8PRO      N 3283   5.977   6.878  10.662
    8PRO     CD 3284   5.853   6.935  10.714
    8PRO    HD2 3285   5.865   6.964  10.819
    8PRO    HD3 3286   5.774   6.862  10.699
    8PRO     CG 3287   5.835   7.064  10.636
    8PRO    HG2 3288   5.872   7.148  10.694
    8PRO    HG3 3289   5.730   7.083  10.620
    8PRO     CB 3290   5.911   7.043  10.502
    8PRO    HB2 3291   5.956   7.136  10.470
    8PRO    HB3 3292   5.846   6.989  10.431
    8PRO     CA 3293   6.023   6.948  10.540
    8PRO     HA 3294   6.032   6.881  10.455
    8PRO      C 3295   6.151   7.027  10.558
    8PRO      O 3296   6.155   7.125  10.639
    9TRP      N 3297   6.255   6.983  10.482
    9TRP      H 3298   6.243   6.903  10.425
    9TRP     CA 3299   6.386   7.051  10.470
    9TRP     HA 3300   6.381   7.158  10.487
    9TRP     CB 3301   6.482   6.981  10.574
    9TRP    HB2 3302   6.468   6.875  10.553
    9TRP    HB3 3303   6.583   7.013  10.549
    9TRP     CG 3304   6.448   6.997  10.724
    9TRP    CD1 3305   6.417   6.906  10.820
    9TRP    HD1 3306   6.420   6.800  10.810
    9TRP    NE1 3307   6.390   6.965  10.943
    9TRP    HE1 3308   6.367   6.920  11.031
    9TRP    CE2 3309   6.381   7.103  10.931
    9TRP    CZ2 3310   6.358   7.211  11.017
    9TRP    HZ2 3311   6.333   7.193  11.121
    9TRP    CH2 3312   6.387   7.340  10.976
    9TRP    HH2 3313   6.374   7.416  11.051
    9TRP    CZ3 3314   6.428   7.362  10.844
    9TRP    HZ3 3315   6.444   7.466  10.817
    9TRP    CE3 3316   6.448   7.255  10.752
    9TRP    HE3 3317   6.490   7.276  10.655
    9TRP    CD2 3318   6.421   7.124  10.794
    9TRP      C 3319   6.443   7.032  10.328
    9TRP      O 3320   6.465   6.923  10.282
   10ARG      N 3321   6.469   7.143  10.261
   10ARG      H 3322   6.428   7.229  10.299
   10ARG     CA 3323   6.533   7.145  10.136
   10ARG     HA 3324   6.493   7.064  10.076
   10ARG     CB 3325   6.510   7.282  10.075
   10ARG    HB2 3326   6.549   7.360  10.140
   10ARG    HB3 3327   6.577   7.285   9.988
   10ARG     CG 3328   6.369   7.317  10.034
   10ARG    HG2 3329   6.343   7.237   9.963
   10ARG    HG3 3330   6.294   7.301  10.111
   10ARG     CD 3331   6.357   7.460   9.968
   10ARG    HD2 3332   6.260   7.473   9.923
   10ARG    HD3 3333   6.383   7.539  10.040
   10ARG     NE 3334   6.446   7.469   9.848
   10ARG     HE 3335   6.421   7.407   9.773
   10ARG     CZ 3336   6.560   7.541   9.843
   10ARG    NH1 3337   6.622   7.573   9.954
   10ARG   HH11 3338   6.605   7.532  10.045
   10ARG   HH12 3339   6.698   7.639   9.943
   10ARG    NH2 3340   6.610   7.579   9.728
   10ARG   HH21 3341   6.561   7.577   9.640
   10ARG   HH22 3342   6.699   7.627   9.732
   10ARG      C 3343   6.682   7.120  10.153
   10ARG      O 3344   6.745   7.167  10.250
   11ARG      N 3345   6.750   7.044  10.065
   11ARG      H 3346   6.692   7.006   9.991
   11ARG     CA 3347   6.893   7.012  10.057
   11ARG     HA 3348   6.939   7.107  10.087
   11ARG     CB 3349   6.938   6.900  10.163
   11ARG    HB2 3350   7.040   6.867  10.139
   11ARG    HB3 3351   6.933   6.939  10.264
   11ARG     CG 3352   6.853   6.771  10.151
   11ARG    HG2 3353   6.749   6.801  10.160
   11ARG    HG3 3354   6.861   6.729  10.050
   11ARG     CD 3355   6.882   6.665  10.268
   11ARG    HD2 3356   6.971   6.616  10.232
   11ARG    HD3 3357   6.892   6.718  10.363
   11ARG     NE 3358   6.773   6.563  10.270
   11ARG     HE 3359   6.754   6.501  10.192
   11ARG     CZ 3360   6.677   6.561  10.359
   11ARG    NH1 3361   6.648   6.644  10.456
   11ARG   HH11 3362   6.706   6.723  10.482
   11ARG   HH12 3363   6.557   6.639  10.498
   11ARG    NH2 3364   6.588   6.466  10.348
   11ARG   HH21 3365   6.588   6.413  10.262
   11ARG   HH22 3366   6.532   6.433  10.425
   11ARG      C 3367   6.932   6.984   9.914
   11ARG      O 3368   6.847   6.924   9.845
   12LYS      N 3369   7.057   7.006   9.874
   12LYS      H 3370   7.114   7.054   9.941
   12LYS     CA 3371   7.113   6.969   9.741
   12LYS     HA 3372   7.060   7.040   9.679
   12LYS     CB 3373   7.266   6.997   9.749
   12LYS    HB2 3374   7.289   7.085   9.808
   12LYS    HB3 3375   7.312   6.918   9.807
   12LYS     CG 3376   7.338   7.021   9.621
   12LYS    HG2 3377   7.318   6.941   9.550
   12LYS    HG3 3378   7.308   7.118   9.580
   12LYS     CD 3379   7.484   7.027   9.641
   12LYS    HD2 3380   7.510   7.113   9.703
   12LYS    HD3 3381   7.521   6.934   9.684
   12LYS     CE 3382   7.549   7.036   9.496
   12LYS    HE2 3383   7.513   6.954   9.435
   12LYS    HE3 3384   7.527   7.124   9.434
   12LYS     NZ 3385   7.697   7.022   9.501
   12LYS    HZ1 3386   7.747   7.105   9.529
   12LYS    HZ2 3387   7.731   6.944   9.555
   12LYS    HZ3 3388   7.725   7.012   9.403
   12LYS      C 3389   7.082   6.832   9.679
   12LYS      O 3390   7.085   6.734   9.749
   13NHE      N 3391   7.070   6.839   9.544
   13NHE    HN1 3392   7.070   6.927   9.493
   13NHE    HN2 3393   7.061   6.757   9.487
    1ILE      N 3394   3.105   8.069   6.559
    1ILE     H1 3395   3.201   8.074   6.530
    1ILE     H2 3396   3.069   8.152   6.608
    1ILE     H3 3397   3.063   8.074   6.468
    1ILE     CA 3398   3.051   7.946   6.619
    1ILE     HA 3399   2.943   7.949   6.608
    1ILE     CB 3400   3.111   7.818   6.547
    1ILE     HB 3401   3.112   7.819   6.437
    1ILE    CG2 3402   3.258   7.812   6.592
    1ILE   HG21 3403   3.271   7.746   6.677
    1ILE   HG22 3404   3.327   7.780   6.513
    1ILE   HG23 3405   3.294   7.909   6.624
    1ILE    CG1 3406   3.030   7.688   6.569
    1ILE   HG12 3407   2.923   7.706   6.561
    1ILE   HG13 3408   3.052   7.648   6.667
    1ILE    CD1 3409   3.063   7.577   6.466
    1ILE   HD11 3410   3.165   7.542   6.473
    1ILE   HD12 3411   3.010   7.487   6.497
    1ILE   HD13 3412   3.039   7.599   6.362
    1ILE      C 3413   3.064   7.947   6.770
    1ILE      O 3414   3.161   8.003   6.819
    2LEU      N 3415   2.968   7.888   6.840
    2LEU      H 3416   2.895   7.843   6.787
    2LEU     CA 3417   2.985   7.847   6.981
    2LEU     HA 3418   3.079   7.882   7.025
    2LEU     CB 3419   2.881   7.909   7.071
    2LEU    HB2 3420   2.794   7.843   7.067
    2LEU    HB3 3421   2.917   7.909   7.173
    2LEU     CG 3422   2.830   8.049   7.039
    2LEU     HG 3423   2.777   8.059   6.944
    2LEU    CD1 3424   2.713   8.085   7.140
    2LEU   HD11 3425   2.622   8.038   7.101
    2LEU   HD12 3426   2.737   8.047   7.239
    2LEU   HD13 3427   2.694   8.192   7.155
    2LEU    CD2 3428   2.936   8.153   7.054
    2LEU   HD21 3429   2.990   8.127   7.145
    2LEU   HD22 3430   3.010   8.136   6.976
    2LEU   HD23 3431   2.903   8.256   7.054
    2LEU      C 3432   2.985   7.694   7.000
    2LEU      O 3433   2.929   7.616   6.921
    3ARG      N 3434   3.061   7.649   7.098
    3ARG      H 3435   3.107   7.718   7.156
    3ARG     CA 3436   3.089   7.506   7.127
    3ARG     HA 3437   3.017   7.447   7.069
    3ARG     CB 3438   3.230   7.460   7.079
    3ARG    HB2 3439   3.228   7.351   7.080
    3ARG    HB3 3440   3.234   7.488   6.974
    3ARG     CG 3441   3.356   7.513   7.154
    3ARG    HG2 3442   3.360   7.621   7.159
    3ARG    HG3 3443   3.359   7.471   7.254
    3ARG     CD 3444   3.489   7.468   7.094
    3ARG    HD2 3445   3.563   7.470   7.175
    3ARG    HD3 3446   3.484   7.360   7.075
    3ARG     NE 3447   3.537   7.544   6.984
    3ARG     HE 3448   3.586   7.627   7.009
    3ARG     CZ 3449   3.536   7.506   6.855
    3ARG    NH1 3450   3.513   7.381   6.817
    3ARG   HH11 3451   3.463   7.317   6.875
    3ARG   HH12 3452   3.520   7.350   6.723
    3ARG    NH2 3453   3.571   7.600   6.765
    3ARG   HH21 3454   3.602   7.692   6.791
    3ARG   HH22 3455   3.581   7.570   6.668
    3ARG      C 3456   3.073   7.471   7.273
    3ARG      O 3457   3.076   7.556   7.361
    4TRP      N 3458   3.030   7.347   7.298
    4TRP      H 3459   3.031   7.278   7.224
    4TRP     CA 3460   2.990   7.299   7.433
    4TRP     HA 3461   3.032   7.366   7.509
    4TRP     CB 3462   2.832   7.309   7.440
    4TRP    HB2 3463   2.787   7.272   7.347
    4TRP    HB3 3464   2.793   7.263   7.530
    4TRP     CG 3465   2.779   7.449   7.446
    4TRP    CD1 3466   2.776   7.525   7.557
    4TRP    HD1 3467   2.812   7.498   7.655
    4TRP    NE1 3468   2.709   7.640   7.529
    4TRP    HE1 3469   2.701   7.715   7.598
    4TRP    CE2 3470   2.668   7.646   7.399
    4TRP    CZ2 3471   2.602   7.739   7.319
    4TRP    HZ2 3472   2.561   7.835   7.350
    4TRP    CH2 3473   2.588   7.713   7.183
    4TRP    HH2 3474   2.536   7.778   7.116
    4TRP    CZ3 3475   2.656   7.609   7.122
    4TRP    HZ3 3476   2.640   7.593   7.015
    4TRP    CE3 3477   2.726   7.509   7.197
    4TRP    HE3 3478   2.775   7.424   7.149
    4TRP    CD2 3479   2.729   7.525   7.339
    4TRP      C 3480   3.038   7.146   7.459
    4TRP      O 3481   3.076   7.078   7.363
    5PRO      N 3482   3.024   7.095   7.580
    5PRO     CD 3483   3.019   7.180   7.696
    5PRO    HD2 3484   2.917   7.193   7.732
    5PRO    HD3 3485   3.066   7.279   7.685
    5PRO     CG 3486   3.098   7.099   7.804
    5PRO    HG2 3487   3.071   7.127   7.906
    5PRO    HG3 3488   3.205   7.122   7.792
    5PRO     CB 3489   3.058   6.958   7.772
    5PRO    HB2 3490   2.955   6.937   7.804
    5PRO    HB3 3491   3.137   6.895   7.811
    5PRO     CA 3492   3.057   6.959   7.620
    5PRO     HA 3493   3.158   6.938   7.586
    5PRO      C 3494   2.963   6.850   7.563
    5PRO      O 3495   2.854   6.897   7.520
    6TRP      N 3496   2.980   6.720   7.575
    6TRP      H 3497   3.076   6.700   7.603
    6TRP     CA 3498   2.881   6.611   7.538
    6TRP     HA 3499   2.831   6.636   7.444
    6TRP     CB 3500   2.966   6.480   7.511
    6TRP    HB2 3501   3.030   6.464   7.598
    6TRP    HB3 3502   2.908   6.388   7.500
    6TRP     CG 3503   3.049   6.477   7.383
    6TRP    CD1 3504   3.181   6.509   7.373
    6TRP    HD1 3505   3.238   6.529   7.464
    6TRP    NE1 3506   3.231   6.511   7.240
    6TRP    HE1 3507   3.324   6.543   7.221
    6TRP    CE2 3508   3.124   6.498   7.158
    6TRP    CZ2 3509   3.109   6.501   7.019
    6TRP    HZ2 3510   3.190   6.535   6.957
    6TRP    CH2 3511   2.989   6.472   6.955
    6TRP    HH2 3512   2.989   6.485   6.848
    6TRP    CZ3 3513   2.871   6.445   7.026
    6TRP    HZ3 3514   2.776   6.430   6.976
    6TRP    CE3 3515   2.883   6.446   7.168
    6TRP    HE3 3516   2.797   6.421   7.229
    6TRP    CD2 3517   3.009   6.468   7.239
    6TRP      C 3518   2.774   6.586   7.635
    6TRP      O 3519   2.676   6.515   7.606
    7TRP      N 3520   2.787   6.645   7.757
    7TRP      H 3521   2.871   6.700   7.768
    7TRP     CA 3522   2.699   6.618   7.871
    7TRP     HA 3523   2.689   6.510   7.877
    7TRP     CB 3524   2.762   6.678   7.997
    7TRP    HB2 3525   2.721   6.776   8.016
    7TRP    HB3 3526   2.722   6.621   8.080
    7TRP     CG 3527   2.912   6.676   8.024
    7TRP    CD1 3528   2.979   6.753   8.114
    7TRP    HD1 3529   2.931   6.826   8.177
    7TRP    NE1 3530   3.114   6.732   8.118
    7TRP    HE1 3531   3.172   6.792   8.175
    7TRP    CE2 3532   3.143   6.626   8.032
    7TRP    CZ2 3533   3.264   6.563   8.008
    7TRP    HZ2 3534   3.353   6.600   8.060
    7TRP    CH2 3535   3.272   6.461   7.913
    7TRP    HH2 3536   3.367   6.411   7.899
    7TRP    CZ3 3537   3.155   6.421   7.846
    7TRP    HZ3 3538   3.161   6.347   7.766
    7TRP    CE3 3539   3.030   6.477   7.887
    7TRP    HE3 3540   2.937   6.434   7.854
    7TRP    CD2 3541   3.019   6.588   7.976
    7TRP      C 3542   2.564   6.675   7.840
    7TRP      O 3543   2.558   6.783   7.780
    8PRO      N 3544   2.450   6.621   7.891
    8PRO     CD 3545   2.439   6.514   7.989
    8PRO    HD2 3546   2.500   6.535   8.077
    8PRO    HD3 3547   2.469   6.421   7.939
    8PRO     CG 3548   2.294   6.518   8.033
    8PRO    HG2 3549   2.286   6.573   8.127
    8PRO    HG3 3550   2.259   6.417   8.055
    8PRO     CB 3551   2.216   6.582   7.915
    8PRO    HB2 3552   2.135   6.643   7.954
    8PRO    HB3 3553   2.192   6.505   7.840
    8PRO     CA 3554   2.318   6.675   7.853
    8PRO     HA 3555   2.299   6.667   7.746
    8PRO      C 3556   2.292   6.817   7.899
    8PRO      O 3557   2.288   6.843   8.023
    9TRP      N 3558   2.274   6.906   7.799
    9TRP      H 3559   2.284   6.876   7.705
    9TRP     CA 3560   2.234   7.048   7.817
    9TRP     HA 3561   2.175   7.064   7.908
    9TRP     CB 3562   2.367   7.132   7.819
    9TRP    HB2 3563   2.420   7.097   7.731
    9TRP    HB3 3564   2.338   7.237   7.808
    9TRP     CG 3565   2.465   7.109   7.936
    9TRP    CD1 3566   2.594   7.065   7.940
    9TRP    HD1 3567   2.656   7.046   7.855
    9TRP    NE1 3568   2.644   7.054   8.069
    9TRP    HE1 3569   2.737   7.028   8.099
    9TRP    CE2 3570   2.543   7.073   8.162
    9TRP    CZ2 3571   2.534   7.075   8.303
    9TRP    HZ2 3572   2.620   7.051   8.362
    9TRP    CH2 3573   2.421   7.126   8.364
    9TRP    HH2 3574   2.426   7.133   8.471
    9TRP    CZ3 3575   2.311   7.166   8.285
    9TRP    HZ3 3576   2.225   7.200   8.339
    9TRP    CE3 3577   2.316   7.160   8.143
    9TRP    HE3 3578   2.234   7.201   8.086
    9TRP    CD2 3579   2.431   7.110   8.080
    9TRP      C 3580   2.146   7.093   7.700
    9TRP      O 3581   2.186   7.092   7.586
   10ARG      N 3582   2.025   7.138   7.731
   10ARG      H 3583   1.993   7.117   7.825
   10ARG     CA 3584   1.937   7.195   7.638
   10ARG     HA 3585   1.942   7.138   7.546
   10ARG     CB 3586   1.799   7.198   7.700
   10ARG    HB2 3587   1.800   7.254   7.794
   10ARG    HB3 3588   1.739   7.260   7.634
   10ARG     CG 3589   1.732   7.064   7.724
   10ARG    HG2 3590   1.729   7.020   7.623
   10ARG    HG3 3591   1.792   6.991   7.776
   10ARG     CD 3592   1.587   7.078   7.786
   10ARG    HD2 3593   1.535   6.983   7.782
   10ARG    HD3 3594   1.592   7.122   7.887
   10ARG     NE 3595   1.501   7.161   7.697
   10ARG     HE 3596   1.483   7.122   7.606
   10ARG     CZ 3597   1.461   7.287   7.726
   10ARG    NH1 3598   1.528   7.359   7.812
   10ARG   HH11 3599   1.622   7.338   7.845
   10ARG   HH12 3600   1.484   7.445   7.840
   10ARG    NH2 3601   1.354   7.339   7.668
   10ARG   HH21 3602   1.286   7.287   7.617
   10ARG   HH22 3603   1.335   7.435   7.690
   10ARG      C 3604   1.982   7.338   7.605
   10ARG      O 3605   2.029   7.413   7.693
   11ARG      N 3606   1.973   7.385   7.480
   11ARG      H 3607   1.937   7.319   7.413
   11ARG     CA 3608   2.002   7.519   7.426
   11ARG     HA 3609   1.966   7.584   7.507
   11ARG     CB 3610   2.159   7.546   7.407
   11ARG    HB2 3611   2.174   7.638   7.350
   11ARG    HB3 3612   2.209   7.553   7.504
   11ARG     CG 3613   2.227   7.437   7.321
   11ARG    HG2 3614   2.204   7.342   7.367
   11ARG    HG3 3615   2.180   7.432   7.222
   11ARG     CD 3616   2.387   7.449   7.316
   11ARG    HD2 3617   2.401   7.526   7.242
   11ARG    HD3 3618   2.424   7.474   7.416
   11ARG     NE 3619   2.445   7.323   7.263
   11ARG     HE 3620   2.426   7.289   7.169
   11ARG     CZ 3621   2.503   7.232   7.337
   11ARG    NH1 3622   2.518   7.224   7.467
   11ARG   HH11 3623   2.491   7.297   7.532
   11ARG   HH12 3624   2.543   7.135   7.507
   11ARG    NH2 3625   2.549   7.126   7.276
   11ARG   HH21 3626   2.520   7.112   7.181
   11ARG   HH22 3627   2.622   7.068   7.313
   11ARG      C 3628   1.917   7.546   7.304
   11ARG      O 3629   1.898   7.447   7.229
   12LYS      N 3630   1.886   7.671   7.271
   12LYS      H 3631   1.910   7.738   7.341
   12LYS     CA 3632   1.816   7.713   7.146
   12LYS     HA 3633   1.718   7.673   7.166
   12LYS     CB 3634   1.819   7.868   7.145
   12LYS    HB2 3635   1.808   7.911   7.244
   12LYS    HB3 3636   1.919   7.900   7.119
   12LYS     CG 3637   1.715   7.938   7.065
   12LYS    HG2 3638   1.713   7.900   6.963
   12LYS    HG3 3639   1.618   7.926   7.114
   12LYS     CD 3640   1.740   8.083   7.057
   12LYS    HD2 3641   1.733   8.128   7.156
   12LYS    HD3 3642   1.837   8.103   7.013
   12LYS     CE 3643   1.633   8.143   6.957
   12LYS    HE2 3644   1.638   8.088   6.863
   12LYS    HE3 3645   1.527   8.135   6.983
   12LYS     NZ 3646   1.660   8.285   6.924
   12LYS    HZ1 3647   1.632   8.352   6.994
   12LYS    HZ2 3648   1.755   8.305   6.897
   12LYS    HZ3 3649   1.597   8.306   6.847
   12LYS      C 3650   1.857   7.653   7.012
   12LYS      O 3651   1.975   7.640   6.986
   13NHE      N 3652   1.751   7.637   6.929
   13NHE    HN1 3653   1.655   7.651   6.959
   13NHE    HN2 3654   1.761   7.609   6.833
    1ILE      N 3655   4.023   6.088   2.775
    1ILE     H1 3656   3.941   6.138   2.745
    1ILE     H2 3657   4.047   6.097   2.874
    1ILE     H3 3658   3.986   5.994   2.767
    1ILE     CA 3659   4.144   6.087   2.692
    1ILE     HA 3660   4.203   6.001   2.722
    1ILE     CB 3661   4.106   6.078   2.538
    1ILE     HB 3662   4.031   6.003   2.511
    1ILE    CG2 3663   4.046   6.216   2.504
    1ILE   HG21 3664   4.120   6.282   2.461
    1ILE   HG22 3665   3.961   6.211   2.434
    1ILE   HG23 3666   4.008   6.266   2.592
    1ILE    CG1 3667   4.221   6.032   2.445
    1ILE   HG12 3668   4.277   5.949   2.490
    1ILE   HG13 3669   4.289   6.115   2.428
    1ILE    CD1 3670   4.173   5.982   2.308
    1ILE   HD11 3671   4.126   6.060   2.249
    1ILE   HD12 3672   4.261   5.963   2.247
    1ILE   HD13 3673   4.109   5.894   2.307
    1ILE      C 3674   4.237   6.201   2.729
    1ILE      O 3675   4.189   6.306   2.766
    2LEU      N 3676   4.369   6.178   2.718
    2LEU      H 3677   4.396   6.088   2.683
    2LEU     CA 3678   4.468   6.286   2.712
    2LEU     HA 3679   4.425   6.386   2.731
    2LEU     CB 3680   4.571   6.274   2.822
    2LEU    HB2 3681   4.649   6.207   2.784
    2LEU    HB3 3682   4.618   6.371   2.839
    2LEU     CG 3683   4.529   6.219   2.958
    2LEU     HG 3684   4.495   6.115   2.957
    2LEU    CD1 3685   4.658   6.204   3.049
    2LEU   HD11 3686   4.706   6.111   3.021
    2LEU   HD12 3687   4.724   6.289   3.033
    2LEU   HD13 3688   4.639   6.203   3.157
    2LEU    CD2 3689   4.434   6.308   3.028
    2LEU   HD21 3690   4.470   6.409   3.013
    2LEU   HD22 3691   4.340   6.307   2.972
    2LEU   HD23 3692   4.415   6.287   3.133
    2LEU      C 3693   4.540   6.296   2.576
    2LEU      O 3694   4.550   6.199   2.499
    3ARG      N 3695   4.575   6.418   2.539
    3ARG      H 3696   4.559   6.493   2.606
    3ARG     CA 3697   4.631   6.454   2.407
    3ARG     HA 3698   4.659   6.361   2.356
    3ARG     CB 3699   4.527   6.523   2.313
    3ARG    HB2 3700   4.569   6.520   2.213
    3ARG    HB3 3701   4.442   6.454   2.310
    3ARG     CG 3702   4.477   6.667   2.346
    3ARG    HG2 3703   4.437   6.676   2.447
    3ARG    HG3 3704   4.559   6.737   2.332
    3ARG     CD 3705   4.371   6.721   2.252
    3ARG    HD2 3706   4.378   6.830   2.255
    3ARG    HD3 3707   4.401   6.701   2.149
    3ARG     NE 3708   4.237   6.681   2.281
    3ARG     HE 3709   4.192   6.736   2.351
    3ARG     CZ 3710   4.164   6.592   2.212
    3ARG    NH1 3711   4.200   6.546   2.094
    3ARG   HH11 3712   4.296   6.548   2.063
    3ARG   HH12 3713   4.144   6.486   2.038
    3ARG    NH2 3714   4.045   6.557   2.267
    3ARG   HH21 3715   4.009   6.599   2.350
    3ARG   HH22 3716   3.985   6.496   2.210
    3ARG      C 3717   4.753   6.543   2.416
    3ARG      O 3718   4.778   6.608   2.517
    4TRP      N 3719   4.844   6.526   2.319
    4TRP      H 3720   4.819   6.475   2.236
    4TRP     CA 3721   4.978   6.589   2.322
    4TRP     HA 3722   4.979   6.673   2.392
    4TRP     CB 3723   5.079   6.479   2.376
    4TRP    HB2 3724   5.059   6.382   2.331
    4TRP    HB3 3725   5.183   6.512   2.368
    4TRP     CG 3726   5.064   6.449   2.522
    4TRP    CD1 3727   5.112   6.524   2.622
    4TRP    HD1 3728   5.166   6.618   2.613
    4TRP    NE1 3729   5.092   6.459   2.740
    4TRP    HE1 3730   5.115   6.503   2.829
    4TRP    CE2 3731   5.027   6.340   2.723
    4TRP    CZ2 3732   4.980   6.239   2.806
    4TRP    HZ2 3733   4.991   6.233   2.914
    4TRP    CH2 3734   4.907   6.135   2.750
    4TRP    HH2 3735   4.869   6.052   2.808
    4TRP    CZ3 3736   4.862   6.140   2.619
    4TRP    HZ3 3737   4.805   6.055   2.582
    4TRP    CE3 3738   4.906   6.240   2.528
    4TRP    HE3 3739   4.875   6.241   2.423
    4TRP    CD2 3740   4.994   6.341   2.578
    4TRP      C 3741   5.024   6.638   2.173
    4TRP      O 3742   4.961   6.599   2.076
    5PRO      N 3743   5.134   6.711   2.162
    5PRO     CD 3744   5.184   6.789   2.272
    5PRO    HD2 3745   5.267   6.740   2.321
    5PRO    HD3 3746   5.109   6.818   2.348
    5PRO     CG 3747   5.237   6.919   2.204
    5PRO    HG2 3748   5.313   6.970   2.263
    5PRO    HG3 3749   5.153   6.988   2.192
    5PRO     CB 3750   5.294   6.864   2.075
    5PRO    HB2 3751   5.389   6.812   2.093
    5PRO    HB3 3752   5.295   6.947   2.005
    5PRO     CA 3753   5.192   6.759   2.037
    5PRO     HA 3754   5.112   6.808   1.982
    5PRO      C 3755   5.253   6.649   1.948
    5PRO      O 3756   5.276   6.542   2.010
    6TRP      N 3757   5.300   6.667   1.825
    6TRP      H 3758   5.266   6.755   1.788
    6TRP     CA 3759   5.379   6.567   1.742
    6TRP     HA 3760   5.338   6.467   1.755
    6TRP     CB 3761   5.357   6.608   1.591
    6TRP    HB2 3762   5.381   6.713   1.581
    6TRP    HB3 3763   5.421   6.556   1.519
    6TRP     CG 3764   5.218   6.579   1.531
    6TRP    CD1 3765   5.116   6.669   1.522
    6TRP    HD1 3766   5.134   6.773   1.549
    6TRP    NE1 3767   4.994   6.614   1.476
    6TRP    HE1 3768   4.910   6.669   1.475
    6TRP    CE2 3769   5.012   6.479   1.472
    6TRP    CZ2 3770   4.925   6.372   1.443
    6TRP    HZ2 3771   4.819   6.389   1.436
    6TRP    CH2 3772   4.968   6.241   1.433
    6TRP    HH2 3773   4.891   6.168   1.416
    6TRP    CZ3 3774   5.101   6.204   1.459
    6TRP    HZ3 3775   5.133   6.101   1.457
    6TRP    CE3 3776   5.190   6.311   1.493
    6TRP    HE3 3777   5.295   6.289   1.510
    6TRP    CD2 3778   5.150   6.451   1.497
    6TRP      C 3779   5.522   6.556   1.775
    6TRP      O 3780   5.591   6.463   1.728
    7TRP      N 3781   5.574   6.651   1.857
    7TRP      H 3782   5.507   6.720   1.887
    7TRP     CA 3783   5.717   6.665   1.885
    7TRP     HA 3784   5.768   6.659   1.790
    7TRP     CB 3785   5.739   6.799   1.957
    7TRP    HB2 3786   5.741   6.784   2.064
    7TRP    HB3 3787   5.843   6.826   1.936
    7TRP     CG 3788   5.664   6.926   1.921
    7TRP    CD1 3789   5.653   7.038   1.997
    7TRP    HD1 3790   5.698   7.049   2.094
    7TRP    NE1 3791   5.578   7.138   1.941
    7TRP    HE1 3792   5.558   7.221   1.995
    7TRP    CE2 3793   5.542   7.098   1.813
    7TRP    CZ2 3794   5.473   7.168   1.715
    7TRP    HZ2 3795   5.438   7.268   1.738
    7TRP    CH2 3796   5.442   7.106   1.594
    7TRP    HH2 3797   5.392   7.164   1.518
    7TRP    CZ3 3798   5.486   6.974   1.572
    7TRP    HZ3 3799   5.456   6.921   1.481
    7TRP    CE3 3800   5.572   6.912   1.668
    7TRP    HE3 3801   5.625   6.822   1.645
    7TRP    CD2 3802   5.596   6.968   1.797
    7TRP      C 3803   5.759   6.547   1.968
    7TRP      O 3804   5.682   6.504   2.054
    8PRO      N 3805   5.886   6.498   1.962
    8PRO     CD 3806   6.000   6.555   1.892
    8PRO    HD2 3807   6.014   6.661   1.918
    8PRO    HD3 3808   5.982   6.541   1.785
    8PRO     CG 3809   6.120   6.481   1.947
    8PRO    HG2 3810   6.167   6.541   2.024
    8PRO    HG3 3811   6.194   6.468   1.869
    8PRO     CB 3812   6.065   6.345   1.997
    8PRO    HB2 3813   6.120   6.314   2.086
    8PRO    HB3 3814   6.058   6.274   1.913
    8PRO     CA 3815   5.923   6.377   2.039
    8PRO     HA 3816   5.866   6.290   2.009
    8PRO      C 3817   5.918   6.393   2.189
    8PRO      O 3818   5.994   6.477   2.247
    9TRP      N 3819   5.827   6.313   2.251
    9TRP      H 3820   5.768   6.255   2.196
    9TRP     CA 3821   5.811   6.301   2.398
    9TRP     HA 3822   5.903   6.320   2.453
    9TRP     CB 3823   5.696   6.400   2.439
    9TRP    HB2 3824   5.617   6.377   2.370
    9TRP    HB3 3825   5.668   6.373   2.542
    9TRP     CG 3826   5.723   6.551   2.422
    9TRP    CD1 3827   5.661   6.646   2.346
    9TRP    HD1 3828   5.571   6.633   2.290
    9TRP    NE1 3829   5.720   6.771   2.356
    9TRP    HE1 3830   5.692   6.858   2.314
    9TRP    CE2 3831   5.840   6.762   2.425
    9TRP    CZ2 3832   5.940   6.852   2.466
    9TRP    HZ2 3833   5.935   6.956   2.436
    9TRP    CH2 3834   6.033   6.814   2.561
    9TRP    HH2 3835   6.101   6.891   2.594
    9TRP    CZ3 3836   6.034   6.681   2.607
    9TRP    HZ3 3837   6.112   6.657   2.677
    9TRP    CE3 3838   5.937   6.586   2.564
    9TRP    HE3 3839   5.935   6.489   2.609
    9TRP    CD2 3840   5.841   6.626   2.469
    9TRP      C 3841   5.770   6.157   2.434
    9TRP      O 3842   5.668   6.107   2.391
   10ARG      N 3843   5.850   6.092   2.516
   10ARG      H 3844   5.943   6.133   2.530
   10ARG     CA 3845   5.821   5.965   2.569
   10ARG     HA 3846   5.778   5.904   2.491
   10ARG     CB 3847   5.950   5.908   2.626
   10ARG    HB2 3848   5.991   5.975   2.702
   10ARG    HB3 3849   5.919   5.820   2.683
   10ARG     CG 3850   6.058   5.872   2.527
   10ARG    HG2 3851   6.009   5.800   2.461
   10ARG    HG3 3852   6.084   5.951   2.456
   10ARG     CD 3853   6.187   5.811   2.596
   10ARG    HD2 3854   6.253   5.768   2.521
   10ARG    HD3 3855   6.236   5.884   2.661
   10ARG     NE 3856   6.150   5.688   2.673
   10ARG     HE 3857   6.114   5.612   2.618
   10ARG     CZ 3858   6.147   5.682   2.808
   10ARG    NH1 3859   6.136   5.792   2.879
   10ARG   HH11 3860   6.107   5.883   2.843
   10ARG   HH12 3861   6.150   5.781   2.978
   10ARG    NH2 3862   6.155   5.567   2.871
   10ARG   HH21 3863   6.184   5.481   2.828
   10ARG   HH22 3864   6.147   5.570   2.971
   10ARG      C 3865   5.717   5.978   2.681
   10ARG      O 3866   5.719   6.074   2.760
   11ARG      N 3867   5.620   5.886   2.694
   11ARG      H 3868   5.623   5.812   2.625
   11ARG     CA 3869   5.514   5.874   2.796
   11ARG     HA 3870   5.567   5.904   2.887
   11ARG     CB 3871   5.392   5.975   2.773
   11ARG    HB2 3872   5.309   5.948   2.839
   11ARG    HB3 3873   5.424   6.077   2.791
   11ARG     CG 3874   5.332   5.962   2.630
   11ARG    HG2 3875   5.414   5.975   2.561
   11ARG    HG3 3876   5.297   5.860   2.613
   11ARG     CD 3877   5.223   6.075   2.596
   11ARG    HD2 3878   5.135   6.036   2.644
   11ARG    HD3 3879   5.259   6.171   2.635
   11ARG     NE 3880   5.199   6.077   2.450
   11ARG     HE 3881   5.160   5.998   2.399
   11ARG     CZ 3882   5.246   6.168   2.369
   11ARG    NH1 3883   5.328   6.269   2.391
   11ARG   HH11 3884   5.361   6.295   2.483
   11ARG   HH12 3885   5.373   6.312   2.313
   11ARG    NH2 3886   5.217   6.157   2.242
   11ARG   HH21 3887   5.176   6.071   2.213
   11ARG   HH22 3888   5.217   6.235   2.178
   11ARG      C 3889   5.475   5.728   2.812
   11ARG      O 3890   5.474   5.661   2.707
   12LYS      N 3891   5.426   5.686   2.928
   12LYS      H 3892   5.432   5.753   3.002
   12LYS     CA 3893   5.369   5.550   2.953
   12LYS     HA 3894   5.460   5.492   2.949
   12LYS     CB 3895   5.308   5.555   3.096
   12LYS    HB2 3896   5.366   5.616   3.165
   12LYS    HB3 3897   5.215   5.610   3.092
   12LYS     CG 3898   5.293   5.426   3.168
   12LYS    HG2 3899   5.240   5.354   3.107
   12LYS    HG3 3900   5.392   5.389   3.197
   12LYS     CD 3901   5.217   5.442   3.294
   12LYS    HD2 3902   5.271   5.506   3.364
   12LYS    HD3 3903   5.118   5.482   3.274
   12LYS     CE 3904   5.194   5.296   3.353
   12LYS    HE2 3905   5.148   5.234   3.276
   12LYS    HE3 3906   5.281   5.237   3.382
   12LYS     NZ 3907   5.101   5.297   3.468
   12LYS    HZ1 3908   5.141   5.326   3.556
   12LYS    HZ2 3909   5.015   5.348   3.454
   12LYS    HZ3 3910   5.081   5.198   3.485
   12LYS      C 3911   5.275   5.486   2.851
   12LYS      O 3912   5.188   5.553   2.800
   13NHE      N 3913   5.292   5.351   2.845
   13NHE    HN1 3914   5.367   5.303   2.892
   13NHE    HN2 3915   5.231   5.292   2.791
    1ILE      N 3916   7.610   3.193   5.683
    1ILE     H1 3917   7.519   3.172   5.647
    1ILE     H2 3918   7.674   3.114   5.692
    1ILE     H3 3919   7.645   3.244   5.604
    1ILE     CA 3920   7.626   3.285   5.797
    1ILE     HA 3921   7.728   3.322   5.795
    1ILE     CB 3922   7.524   3.406   5.785
    1ILE     HB 3923   7.516   3.455   5.687
    1ILE    CG2 3924   7.386   3.344   5.815
    1ILE   HG21 3925   7.358   3.357   5.919
    1ILE   HG22 3926   7.304   3.385   5.754
    1ILE   HG23 3927   7.385   3.238   5.796
    1ILE    CG1 3928   7.560   3.530   5.871
    1ILE   HG12 3929   7.667   3.552   5.865
    1ILE   HG13 3930   7.533   3.511   5.974
    1ILE    CD1 3931   7.487   3.659   5.826
    1ILE   HD11 3932   7.379   3.652   5.839
    1ILE   HD12 3933   7.510   3.736   5.899
    1ILE   HD13 3934   7.509   3.695   5.726
    1ILE      C 3935   7.624   3.212   5.929
    1ILE      O 3936   7.554   3.113   5.939
    2LEU      N 3937   7.701   3.260   6.027
    2LEU      H 3938   7.752   3.344   6.007
    2LEU     CA 3939   7.681   3.224   6.168
    2LEU     HA 3940   7.607   3.145   6.184
    2LEU     CB 3941   7.806   3.164   6.230
    2LEU    HB2 3942   7.867   3.248   6.264
    2LEU    HB3 3943   7.779   3.106   6.317
    2LEU     CG 3944   7.896   3.078   6.142
    2LEU     HG 3945   7.943   3.129   6.059
    2LEU    CD1 3946   8.026   3.039   6.226
    2LEU   HD11 3947   8.094   3.124   6.221
    2LEU   HD12 3948   7.998   3.018   6.329
    2LEU   HD13 3949   8.079   2.949   6.193
    2LEU    CD2 3950   7.831   2.951   6.100
    2LEU   HD21 3951   7.777   2.915   6.188
    2LEU   HD22 3952   7.750   2.978   6.032
    2LEU   HD23 3953   7.894   2.875   6.056
    2LEU      C 3954   7.634   3.343   6.255
    2LEU      O 3955   7.657   3.461   6.224
    3ARG      N 3956   7.555   3.311   6.355
    3ARG      H 3957   7.537   3.213   6.372
    3ARG     CA 3958   7.485   3.409   6.443
    3ARG     HA 3959   7.529   3.508   6.425
    3ARG     CB 3960   7.334   3.425   6.409
    3ARG    HB2 3961   7.301   3.516   6.459
    3ARG    HB3 3962   7.331   3.449   6.302
    3ARG     CG 3963   7.236   3.307   6.440
    3ARG    HG2 3964   7.268   3.214   6.395
    3ARG    HG3 3965   7.227   3.296   6.548
    3ARG     CD 3966   7.092   3.331   6.396
    3ARG    HD2 3967   7.029   3.269   6.460
    3ARG    HD3 3968   7.062   3.431   6.428
    3ARG     NE 3969   7.064   3.302   6.259
    3ARG     HE 3970   7.046   3.206   6.240
    3ARG     CZ 3971   7.043   3.393   6.162
    3ARG    NH1 3972   7.023   3.521   6.187
    3ARG   HH11 3973   7.054   3.564   6.272
    3ARG   HH12 3974   6.999   3.588   6.117
    3ARG    NH2 3975   7.034   3.344   6.036
    3ARG   HH21 3976   7.037   3.246   6.015
    3ARG   HH22 3977   7.009   3.411   5.963
    3ARG      C 3978   7.499   3.377   6.590
    3ARG      O 3979   7.529   3.266   6.629
    4TRP      N 3980   7.501   3.483   6.672
    4TRP      H 3981   7.473   3.574   6.637
    4TRP     CA 3982   7.533   3.474   6.817
    4TRP     HA 3983   7.520   3.370   6.851
    4TRP     CB 3984   7.686   3.512   6.832
    4TRP    HB2 3985   7.711   3.599   6.770
    4TRP    HB3 3986   7.715   3.522   6.937
    4TRP     CG 3987   7.781   3.409   6.780
    4TRP    CD1 3988   7.816   3.297   6.844
    4TRP    HD1 3989   7.780   3.262   6.940
    4TRP    NE1 3990   7.914   3.234   6.773
    4TRP    HE1 3991   7.950   3.143   6.801
    4TRP    CE2 3992   7.946   3.301   6.658
    4TRP    CZ2 3993   8.032   3.280   6.551
    4TRP    HZ2 3994   8.104   3.200   6.539
    4TRP    CH2 3995   8.028   3.369   6.444
    4TRP    HH2 3996   8.094   3.361   6.359
    4TRP    CZ3 3997   7.926   3.462   6.430
    4TRP    HZ3 3998   7.929   3.528   6.344
    4TRP    CE3 3999   7.834   3.489   6.536
    4TRP    HE3 4000   7.757   3.566   6.528
    4TRP    CD2 4001   7.845   3.410   6.655
    4TRP      C 4002   7.441   3.575   6.905
    4TRP      O 4003   7.377   3.662   6.847
    5PRO      N 4004   7.446   3.566   7.037
    5PRO     CD 4005   7.486   3.444   7.102
    5PRO    HD2 4006   7.589   3.449   7.137
    5PRO    HD3 4007   7.472   3.352   7.043
    5PRO     CG 4008   7.393   3.437   7.227
    5PRO    HG2 4009   7.434   3.377   7.308
    5PRO    HG3 4010   7.298   3.391   7.197
    5PRO     CB 4011   7.383   3.583   7.266
    5PRO    HB2 4012   7.476   3.618   7.313
    5PRO    HB3 4013   7.291   3.593   7.322
    5PRO     CA 4014   7.374   3.651   7.131
    5PRO     HA 4015   7.270   3.652   7.101
    5PRO      C 4016   7.424   3.797   7.137
    5PRO      O 4017   7.540   3.811   7.088
    6TRP      N 4018   7.367   3.895   7.206
    6TRP      H 4019   7.273   3.869   7.231
    6TRP     CA 4020   7.424   4.034   7.230
    6TRP     HA 4021   7.473   4.071   7.140
    6TRP     CB 4022   7.300   4.128   7.258
    6TRP    HB2 4023   7.240   4.082   7.337
    6TRP    HB3 4024   7.325   4.228   7.295
    6TRP     CG 4025   7.211   4.163   7.138
    6TRP    CD1 4026   7.097   4.100   7.103
    6TRP    HD1 4027   7.055   4.024   7.170
    6TRP    NE1 4028   7.041   4.143   6.980
    6TRP    HE1 4029   6.961   4.096   6.941
    6TRP    CE2 4030   7.133   4.225   6.923
    6TRP    CZ2 4031   7.138   4.290   6.799
    6TRP    HZ2 4032   7.068   4.264   6.721
    6TRP    CH2 4033   7.238   4.380   6.766
    6TRP    HH2 4034   7.234   4.419   6.665
    6TRP    CZ3 4035   7.346   4.408   6.851
    6TRP    HZ3 4036   7.427   4.473   6.823
    6TRP    CE3 4037   7.344   4.339   6.977
    6TRP    HE3 4038   7.422   4.359   7.049
    6TRP    CD2 4039   7.237   4.249   7.018
    6TRP      C 4040   7.524   4.043   7.337
    6TRP      O 4041   7.592   4.147   7.352
    7TRP      N 4042   7.539   3.935   7.418
    7TRP      H 4043   7.477   3.858   7.395
    7TRP     CA 4044   7.621   3.934   7.539
    7TRP     HA 4045   7.597   4.024   7.594
    7TRP     CB 4046   7.589   3.806   7.619
    7TRP    HB2 4047   7.661   3.729   7.594
    7TRP    HB3 4048   7.614   3.829   7.722
    7TRP     CG 4049   7.449   3.749   7.630
    7TRP    CD1 4050   7.416   3.623   7.669
    7TRP    HD1 4051   7.489   3.548   7.697
    7TRP    NE1 4052   7.282   3.596   7.670
    7TRP    HE1 4053   7.250   3.502   7.689
    7TRP    CE2 4054   7.215   3.714   7.639
    7TRP    CZ2 4055   7.079   3.739   7.636
    7TRP    HZ2 4056   7.010   3.658   7.657
    7TRP    CH2 4057   7.032   3.865   7.597
    7TRP    HH2 4058   6.925   3.883   7.599
    7TRP    CZ3 4059   7.126   3.965   7.565
    7TRP    HZ3 4060   7.091   4.062   7.527
    7TRP    CE3 4061   7.265   3.940   7.588
    7TRP    HE3 4062   7.336   4.020   7.586
    7TRP    CD2 4063   7.316   3.810   7.617
    7TRP      C 4064   7.765   3.943   7.497
    7TRP      O 4065   7.801   3.881   7.396
    8PRO      N 4066   7.859   4.000   7.577
    8PRO     CD 4067   7.842   4.049   7.713
    8PRO    HD2 4068   7.797   3.971   7.777
    8PRO    HD3 4069   7.781   4.139   7.709
    8PRO     CG 4070   7.983   4.071   7.764
    8PRO    HG2 4071   8.015   3.985   7.823
    8PRO    HG3 4072   7.985   4.155   7.831
    8PRO     CB 4073   8.069   4.095   7.637
    8PRO    HB2 4074   8.168   4.052   7.651
    8PRO    HB3 4075   8.062   4.201   7.607
    8PRO     CA 4076   7.999   4.014   7.530
    8PRO     HA 4077   8.006   4.075   7.441
    8PRO      C 4078   8.072   3.883   7.510
    8PRO      O 4079   8.092   3.805   7.609
    9TRP      N 4080   8.110   3.859   7.382
    9TRP      H 4081   8.085   3.924   7.311
    9TRP     CA 4082   8.194   3.746   7.338
    9TRP     HA 4083   8.261   3.709   7.416
    9TRP     CB 4084   8.095   3.633   7.290
    9TRP    HB2 4085   8.028   3.686   7.223
    9TRP    HB3 4086   8.156   3.560   7.235
    9TRP     CG 4087   8.004   3.568   7.396
    9TRP    CD1 4088   7.868   3.563   7.408
    9TRP    HD1 4089   7.797   3.597   7.335
    9TRP    NE1 4090   7.826   3.497   7.523
    9TRP    HE1 4091   7.732   3.477   7.553
    9TRP    CE2 4092   7.934   3.471   7.606
    9TRP    CZ2 4093   7.953   3.408   7.731
    9TRP    HZ2 4094   7.867   3.374   7.786
    9TRP    CH2 4095   8.080   3.373   7.772
    9TRP    HH2 4096   8.085   3.318   7.864
    9TRP    CZ3 4097   8.191   3.411   7.693
    9TRP    HZ3 4098   8.287   3.384   7.734
    9TRP    CE3 4099   8.175   3.479   7.569
    9TRP    HE3 4100   8.261   3.496   7.507
    9TRP    CD2 4101   8.046   3.513   7.526
    9TRP      C 4102   8.284   3.789   7.221
    9TRP      O 4103   8.238   3.830   7.117
   10ARG      N 4104   8.414   3.775   7.239
   10ARG      H 4105   8.444   3.760   7.335
   10ARG     CA 4106   8.509   3.797   7.138
   10ARG     HA 4107   8.481   3.886   7.082
   10ARG     CB 4108   8.645   3.810   7.205
   10ARG    HB2 4109   8.668   3.720   7.263
   10ARG    HB3 4110   8.717   3.807   7.123
   10ARG     CG 4111   8.667   3.932   7.292
   10ARG    HG2 4112   8.649   4.016   7.222
   10ARG    HG3 4113   8.591   3.950   7.366
   10ARG     CD 4114   8.813   3.938   7.353
   10ARG    HD2 4115   8.832   4.035   7.397
   10ARG    HD3 4116   8.830   3.854   7.423
   10ARG     NE 4117   8.915   3.936   7.244
   10ARG     HE 4118   8.913   4.016   7.183
   10ARG     CZ 4119   8.995   3.831   7.217
   10ARG    NH1 4120   8.960   3.710   7.255
   10ARG   HH11 4121   8.867   3.683   7.286
   10ARG   HH12 4122   9.031   3.639   7.245
   10ARG    NH2 4123   9.108   3.847   7.151
   10ARG   HH21 4124   9.153   3.935   7.136
   10ARG   HH22 4125   9.159   3.763   7.130
   10ARG      C 4126   8.511   3.679   7.041
   10ARG      O 4127   8.496   3.562   7.081
   11ARG      N 4128   8.526   3.700   6.909
   11ARG      H 4129   8.534   3.797   6.883
   11ARG     CA 4130   8.537   3.604   6.799
   11ARG     HA 4131   8.597   3.524   6.844
   11ARG     CB 4132   8.395   3.540   6.755
   11ARG    HB2 4133   8.407   3.485   6.662
   11ARG    HB3 4134   8.358   3.475   6.834
   11ARG     CG 4135   8.291   3.649   6.722
   11ARG    HG2 4136   8.285   3.715   6.808
   11ARG    HG3 4137   8.327   3.713   6.641
   11ARG     CD 4138   8.143   3.591   6.699
   11ARG    HD2 4139   8.149   3.557   6.597
   11ARG    HD3 4140   8.123   3.514   6.773
   11ARG     NE 4141   8.045   3.703   6.703
   11ARG     HE 4142   8.045   3.780   6.637
   11ARG     CZ 4143   7.966   3.726   6.804
   11ARG    NH1 4144   7.958   3.669   6.923
   11ARG   HH11 4145   8.011   3.587   6.949
   11ARG   HH12 4146   7.909   3.717   6.996
   11ARG    NH2 4147   7.885   3.828   6.795
   11ARG   HH21 4148   7.901   3.892   6.719
   11ARG   HH22 4149   7.799   3.836   6.847
   11ARG      C 4150   8.617   3.664   6.685
   11ARG      O 4151   8.599   3.785   6.665
   12LYS      N 4152   8.685   3.584   6.602
   12LYS      H 4153   8.688   3.488   6.632
   12LYS     CA 4154   8.755   3.628   6.479
   12LYS     HA 4155   8.837   3.683   6.523
   12LYS     CB 4156   8.802   3.498   6.408
   12LYS    HB2 4157   8.833   3.421   6.477
   12LYS    HB3 4158   8.716   3.452   6.361
   12LYS     CG 4159   8.917   3.509   6.314
   12LYS    HG2 4160   8.900   3.588   6.241
   12LYS    HG3 4161   9.008   3.527   6.371
   12LYS     CD 4162   8.939   3.383   6.239
   12LYS    HD2 4163   8.967   3.303   6.307
   12LYS    HD3 4164   8.850   3.357   6.182
   12LYS     CE 4165   9.053   3.413   6.132
   12LYS    HE2 4166   9.024   3.500   6.073
   12LYS    HE3 4167   9.152   3.441   6.168
   12LYS     NZ 4168   9.070   3.301   6.037
   12LYS    HZ1 4169   9.123   3.222   6.071
   12LYS    HZ2 4170   8.985   3.266   5.996
   12LYS    HZ3 4171   9.131   3.338   5.964
   12LYS      C 4172   8.688   3.726   6.383
   12LYS      O 4173   8.571   3.712   6.355
   13NHE      N 4174   8.778   3.810   6.326
   13NHE    HN1 4175   8.875   3.815   6.354
   13NHE    HN2 4176   8.752   3.874   6.252
    1ILE      N 4177   1.723  11.262  11.736
    1ILE     H1 4178   1.624  11.280  11.728
    1ILE     H2 4179   1.784  11.317  11.675
    1ILE     H3 4180   1.737  11.301  11.828
    1ILE     CA 4181   1.772  11.123  11.747
    1ILE     HA 4182   1.871  11.127  11.790
    1ILE     CB 4183   1.674  11.037  11.837
    1ILE     HB 4184   1.642  11.081  11.932
    1ILE    CG2 4185   1.547  11.018  11.752
    1ILE   HG21 4186   1.549  10.924  11.698
    1ILE   HG22 4187   1.454  11.021  11.810
    1ILE   HG23 4188   1.538  11.095  11.677
    1ILE    CG1 4189   1.737  10.905  11.892
    1ILE   HG12 4190   1.839  10.922  11.926
    1ILE   HG13 4191   1.738  10.831  11.813
    1ILE    CD1 4192   1.659  10.846  12.011
    1ILE   HD11 4193   1.559  10.814  11.985
    1ILE   HD12 4194   1.704  10.750  12.034
    1ILE   HD13 4195   1.655  10.907  12.101
    1ILE      C 4196   1.802  11.065  11.610
    1ILE      O 4197   1.734  11.099  11.516
    2LEU      N 4198   1.904  10.979  11.602
    2LEU      H 4199   1.951  10.957  11.688
    2LEU     CA 4200   1.922  10.886  11.489
    2LEU     HA 4201   1.851  10.904  11.406
    2LEU     CB 4202   2.056  10.905  11.421
    2LEU    HB2 4203   2.127  10.843  11.476
    2LEU    HB3 4204   2.051  10.865  11.320
    2LEU     CG 4205   2.117  11.044  11.414
    2LEU     HG 4206   2.141  11.089  11.510
    2LEU    CD1 4207   2.262  11.033  11.351
    2LEU   HD11 4208   2.329  11.003  11.431
    2LEU   HD12 4209   2.262  10.960  11.271
    2LEU   HD13 4210   2.301  11.125  11.305
    2LEU    CD2 4211   2.037  11.136  11.328
    2LEU   HD21 4212   2.008  11.078  11.241
    2LEU   HD22 4213   1.942  11.154  11.379
    2LEU   HD23 4214   2.084  11.230  11.301
    2LEU      C 4215   1.904  10.738  11.528
    2LEU      O 4216   1.922  10.697  11.644
    3ARG      N 4217   1.853  10.661  11.434
    3ARG      H 4218   1.837  10.703  11.343
    3ARG     CA 4219   1.812  10.519  11.452
    3ARG     HA 4220   1.854  10.485  11.548
    3ARG     CB 4221   1.658  10.500  11.465
    3ARG    HB2 4222   1.643  10.400  11.505
    3ARG    HB3 4223   1.628  10.568  11.546
    3ARG     CG 4224   1.568  10.524  11.339
    3ARG    HG2 4225   1.583  10.621  11.294
    3ARG    HG3 4226   1.587  10.445  11.267
    3ARG     CD 4227   1.419  10.510  11.365
    3ARG    HD2 4228   1.372  10.482  11.270
    3ARG    HD3 4229   1.401  10.419  11.423
    3ARG     NE 4230   1.354  10.625  11.418
    3ARG     HE 4231   1.328  10.693  11.349
    3ARG     CZ 4232   1.311  10.641  11.545
    3ARG    NH1 4233   1.303  10.541  11.630
    3ARG   HH11 4234   1.357  10.458  11.620
    3ARG   HH12 4235   1.264  10.550  11.722
    3ARG    NH2 4236   1.267  10.765  11.577
    3ARG   HH21 4237   1.261  10.840  11.511
    3ARG   HH22 4238   1.226  10.775  11.670
    3ARG      C 4239   1.864  10.428  11.343
    3ARG      O 4240   1.899  10.472  11.234
    4TRP      N 4241   1.891  10.303  11.381
    4TRP      H 4242   1.859  10.269  11.470
    4TRP     CA 4243   1.961  10.205  11.293
    4TRP     HA 4244   1.954  10.237  11.188
    4TRP     CB 4245   2.114  10.206  11.335
    4TRP    HB2 4246   2.124  10.208  11.444
    4TRP    HB3 4247   2.169  10.126  11.286
    4TRP     CG 4248   2.187  10.330  11.295
    4TRP    CD1 4249   2.234  10.356  11.172
    4TRP    HD1 4250   2.224  10.294  11.084
    4TRP    NE1 4251   2.307  10.470  11.176
    4TRP    HE1 4252   2.346  10.511  11.091
    4TRP    CE2 4253   2.309  10.526  11.300
    4TRP    CZ2 4254   2.364  10.642  11.357
    4TRP    HZ2 4255   2.426  10.715  11.308
    4TRP    CH2 4256   2.334  10.671  11.490
    4TRP    HH2 4257   2.375  10.756  11.541
    4TRP    CZ3 4258   2.236  10.601  11.559
    4TRP    HZ3 4259   2.218  10.629  11.663
    4TRP    CE3 4260   2.176  10.482  11.508
    4TRP    HE3 4261   2.102  10.425  11.564
    4TRP    CD2 4262   2.216  10.441  11.376
    4TRP      C 4263   1.899  10.055  11.311
    4TRP      O 4264   1.825  10.033  11.407
    5PRO      N 4265   1.939   9.960  11.228
    5PRO     CD 4266   1.990   9.992  11.098
    5PRO    HD2 4267   2.098   9.986  11.095
    5PRO    HD3 4268   1.958  10.089  11.056
    5PRO     CG 4269   1.933   9.878  11.007
    5PRO    HG2 4270   1.993   9.861  10.917
    5PRO    HG3 4271   1.832   9.906  10.975
    5PRO     CB 4272   1.940   9.760  11.100
    5PRO    HB2 4273   2.043   9.724  11.113
    5PRO    HB3 4274   1.866   9.688  11.063
    5PRO     CA 4275   1.898   9.820  11.233
    5PRO     HA 4276   1.789   9.818  11.237
    5PRO      C 4277   1.953   9.741  11.353
    5PRO      O 4278   2.051   9.797  11.408
    6TRP      N 4279   1.920   9.616  11.384
    6TRP      H 4280   1.834   9.590  11.336
    6TRP     CA 4281   1.986   9.528  11.489
    6TRP     HA 4282   2.011   9.587  11.577
    6TRP     CB 4283   1.878   9.421  11.532
    6TRP    HB2 4284   1.839   9.374  11.442
    6TRP    HB3 4285   1.915   9.340  11.594
    6TRP     CG 4286   1.762   9.472  11.619
    6TRP    CD1 4287   1.639   9.510  11.573
    6TRP    HD1 4288   1.614   9.494  11.467
    6TRP    NE1 4289   1.554   9.566  11.672
    6TRP    HE1 4290   1.466   9.605  11.646
    6TRP    CE2 4291   1.630   9.583  11.783
    6TRP    CZ2 4292   1.605   9.641  11.908
    6TRP    HZ2 4293   1.516   9.699  11.923
    6TRP    CH2 4294   1.695   9.636  12.013
    6TRP    HH2 4295   1.667   9.690  12.101
    6TRP    CZ3 4296   1.823   9.579  11.999
    6TRP    HZ3 4297   1.896   9.581  12.079
    6TRP    CE3 4298   1.852   9.524  11.870
    6TRP    HE3 4299   1.948   9.474  11.855
    6TRP    CD2 4300   1.757   9.520  11.761
    6TRP      C 4301   2.111   9.464  11.447
    6TRP      O 4302   2.185   9.407  11.531
    7TRP      N 4303   2.143   9.470  11.316
    7TRP      H 4304   2.075   9.518  11.259
    7TRP     CA 4305   2.254   9.396  11.254
    7TRP     HA 4306   2.249   9.295  11.292
    7TRP     CB 4307   2.240   9.404  11.102
    7TRP    HB2 4308   2.300   9.485  11.063
    7TRP    HB3 4309   2.293   9.317  11.063
    7TRP     CG 4310   2.106   9.396  11.031
    7TRP    CD1 4311   2.080   9.433  10.902
    7TRP    HD1 4312   2.155   9.474  10.836
    7TRP    NE1 4313   1.950   9.417  10.863
    7TRP    HE1 4314   1.921   9.451  10.772
    7TRP    CE2 4315   1.882   9.355  10.967
    7TRP    CZ2 4316   1.751   9.310  10.971
    7TRP    HZ2 4317   1.687   9.326  10.885
    7TRP    CH2 4318   1.700   9.254  11.089
    7TRP    HH2 4319   1.598   9.217  11.089
    7TRP    CZ3 4320   1.785   9.241  11.200
    7TRP    HZ3 4321   1.745   9.205  11.295
    7TRP    CE3 4322   1.924   9.272  11.185
    7TRP    HE3 4323   1.996   9.242  11.260
    7TRP    CD2 4324   1.977   9.338  11.070
    7TRP      C 4325   2.382   9.457  11.305
    7TRP      O 4326   2.387   9.580  11.319
    8PRO      N 4327   2.496   9.384  11.317
    8PRO     CD 4328   2.517   9.246  11.274
    8PRO    HD2 4329   2.489   9.232  11.170
    8PRO    HD3 4330   2.461   9.182  11.342
    8PRO     CG 4331   2.668   9.227  11.281
    8PRO    HG2 4332   2.711   9.241  11.182
    8PRO    HG3 4333   2.691   9.126  11.310
    8PRO     CB 4334   2.718   9.331  11.386
    8PRO    HB2 4335   2.815   9.369  11.355
    8PRO    HB3 4336   2.707   9.289  11.487
    8PRO     CA 4337   2.619   9.444  11.373
    8PRO     HA 4338   2.604   9.479  11.475
    8PRO      C 4339   2.679   9.555  11.289
    8PRO      O 4340   2.721   9.530  11.172
    9TRP      N 4341   2.681   9.676  11.350
    9TRP      H 4342   2.640   9.687  11.440
    9TRP     CA 4343   2.746   9.798  11.295
    9TRP     HA 4344   2.830   9.775  11.229
    9TRP     CB 4345   2.634   9.878  11.220
    9TRP    HB2 4346   2.553   9.883  11.292
    9TRP    HB3 4347   2.675   9.978  11.200
    9TRP     CG 4348   2.572   9.814  11.094
    9TRP    CD1 4349   2.444   9.776  11.065
    9TRP    HD1 4350   2.357   9.795  11.125
    9TRP    NE1 4351   2.432   9.717  10.940
    9TRP    HE1 4352   2.348   9.684  10.894
    9TRP    CE2 4353   2.557   9.694  10.885
    9TRP    CZ2 4354   2.606   9.639  10.764
    9TRP    HZ2 4355   2.537   9.597  10.693
    9TRP    CH2 4356   2.738   9.659  10.729
    9TRP    HH2 4357   2.765   9.622  10.631
    9TRP    CZ3 4358   2.825   9.723  10.819
    9TRP    HZ3 4359   2.927   9.730  10.786
    9TRP    CE3 4360   2.779   9.774  10.943
    9TRP    HE3 4361   2.847   9.832  11.005
    9TRP    CD2 4362   2.645   9.756  10.979
    9TRP      C 4363   2.803   9.883  11.409
    9TRP      O 4364   2.733   9.928  11.497
   10ARG      N 4365   2.933   9.908  11.405
   10ARG      H 4366   2.987   9.850  11.341
   10ARG     CA 4367   2.998   9.995  11.493
   10ARG     HA 4368   2.959   9.979  11.593
   10ARG     CB 4369   3.147   9.967  11.483
   10ARG    HB2 4370   3.182   9.982  11.380
   10ARG    HB3 4371   3.194  10.050  11.538
   10ARG     CG 4372   3.196   9.834  11.533
   10ARG    HG2 4373   3.163   9.833  11.638
   10ARG    HG3 4374   3.143   9.748  11.495
   10ARG     CD 4375   3.353   9.817  11.521
   10ARG    HD2 4376   3.386   9.730  11.576
   10ARG    HD3 4377   3.385   9.818  11.415
   10ARG     NE 4378   3.423   9.926  11.596
   10ARG     HE 4379   3.407   9.926  11.696
   10ARG     CZ 4380   3.488  10.029  11.538
   10ARG    NH1 4381   3.460  10.062  11.414
   10ARG   HH11 4382   3.378  10.033  11.362
   10ARG   HH12 4383   3.524  10.129  11.373
   10ARG    NH2 4384   3.580  10.096  11.604
   10ARG   HH21 4385   3.623  10.066  11.689
   10ARG   HH22 4386   3.621  10.175  11.555
   10ARG      C 4387   2.969  10.140  11.455
   10ARG      O 4388   2.962  10.175  11.336
   11ARG      N 4389   2.949  10.233  11.551
   11ARG      H 4390   2.954  10.197  11.645
   11ARG     CA 4391   2.927  10.378  11.539
   11ARG     HA 4392   2.995  10.404  11.456
   11ARG     CB 4393   2.777  10.415  11.495
   11ARG    HB2 4394   2.762  10.523  11.506
   11ARG    HB3 4395   2.760  10.385  11.391
   11ARG     CG 4396   2.671  10.351  11.588
   11ARG    HG2 4397   2.692  10.245  11.590
   11ARG    HG3 4398   2.687  10.385  11.691
   11ARG     CD 4399   2.521  10.369  11.535
   11ARG    HD2 4400   2.498  10.470  11.568
   11ARG    HD3 4401   2.518  10.353  11.427
   11ARG     NE 4402   2.432  10.277  11.610
   11ARG     HE 4403   2.417  10.282  11.710
   11ARG     CZ 4404   2.383  10.166  11.560
   11ARG    NH1 4405   2.405  10.107  11.444
   11ARG   HH11 4406   2.461  10.148  11.370
   11ARG   HH12 4407   2.379  10.011  11.433
   11ARG    NH2 4408   2.306  10.094  11.636
   11ARG   HH21 4409   2.304  10.118  11.734
   11ARG   HH22 4410   2.238  10.029  11.601
   11ARG      C 4411   2.977  10.448  11.663
   11ARG      O 4412   2.958  10.387  11.770
   12LYS      N 4413   3.017  10.575  11.656
   12LYS      H 4414   3.024  10.610  11.563
   12LYS     CA 4415   3.053  10.660  11.772
   12LYS     HA 4416   3.145  10.613  11.802
   12LYS     CB 4417   3.075  10.803  11.715
   12LYS    HB2 4418   3.120  10.803  11.617
   12LYS    HB3 4419   2.978  10.847  11.694
   12LYS     CG 4420   3.161  10.896  11.793
   12LYS    HG2 4421   3.128  10.901  11.897
   12LYS    HG3 4422   3.265  10.863  11.787
   12LYS     CD 4423   3.158  11.033  11.739
   12LYS    HD2 4424   3.200  11.035  11.639
   12LYS    HD3 4425   3.056  11.072  11.739
   12LYS     CE 4426   3.240  11.124  11.840
   12LYS    HE2 4427   3.200  11.112  11.940
   12LYS    HE3 4428   3.346  11.104  11.854
   12LYS     NZ 4429   3.227  11.269  11.808
   12LYS    HZ1 4430   3.284  11.301  11.731
   12LYS    HZ2 4431   3.133  11.301  11.792
   12LYS    HZ3 4432   3.268  11.317  11.887
   12LYS      C 4433   2.966  10.660  11.898
   12LYS      O 4434   2.846  10.662  11.888
   13NHE      N 4435   3.041  10.675  12.011
   13NHE    HN1 4436   3.143  10.673  12.011
   13NHE    HN2 4437   2.999  10.688  12.102
    1ILE      N 4438   9.398   2.455  10.337
    1ILE     H1 4439   9.374   2.368  10.292
    1ILE     H2 4440   9.391   2.456  10.439
    1ILE     H3 4441   9.497   2.452  10.319
    1ILE     CA 4442   9.354   2.583  10.280
    1ILE     HA 4443   9.419   2.660  10.319
    1ILE     CB 4444   9.360   2.578  10.121
    1ILE     HB 4445   9.451   2.538  10.077
    1ILE    CG2 4446   9.245   2.485  10.079
    1ILE   HG21 4447   9.155   2.540  10.055
    1ILE   HG22 4448   9.269   2.421   9.994
    1ILE   HG23 4449   9.218   2.417  10.160
    1ILE    CG1 4450   9.359   2.718  10.053
    1ILE   HG12 4451   9.424   2.788  10.106
    1ILE   HG13 4452   9.258   2.757  10.052
    1ILE    CD1 4453   9.409   2.715   9.907
    1ILE   HD11 4454   9.344   2.657   9.842
    1ILE   HD12 4455   9.394   2.814   9.865
    1ILE   HD13 4456   9.512   2.684   9.891
    1ILE      C 4457   9.220   2.626  10.338
    1ILE      O 4458   9.140   2.540  10.368
    2LEU      N 4459   9.200   2.757  10.354
    2LEU      H 4460   9.274   2.818  10.323
    2LEU     CA 4461   9.066   2.815  10.372
    2LEU     HA 4462   8.987   2.740  10.384
    2LEU     CB 4463   9.056   2.895  10.500
    2LEU    HB2 4464   9.092   2.996  10.477
    2LEU    HB3 4465   8.951   2.904  10.529
    2LEU     CG 4466   9.134   2.848  10.622
    2LEU     HG 4467   9.242   2.850  10.611
    2LEU    CD1 4468   9.117   2.956  10.738
    2LEU   HD11 4469   9.187   3.036  10.718
    2LEU   HD12 4470   9.014   2.993  10.738
    2LEU   HD13 4471   9.133   2.919  10.840
    2LEU    CD2 4472   9.086   2.718  10.674
    2LEU   HD21 4473   8.977   2.722  10.670
    2LEU   HD22 4474   9.110   2.642  10.600
    2LEU   HD23 4475   9.121   2.688  10.772
    2LEU      C 4476   9.022   2.904  10.253
    2LEU      O 4477   9.103   2.959  10.177
    3ARG      N 4478   8.893   2.904  10.228
    3ARG      H 4479   8.833   2.853  10.292
    3ARG     CA 4480   8.829   2.969  10.111
    3ARG     HA 4481   8.903   3.034  10.064
    3ARG     CB 4482   8.787   2.868  10.000
    3ARG    HB2 4483   8.768   2.927   9.910
    3ARG    HB3 4484   8.879   2.812   9.977
    3ARG     CG 4485   8.669   2.769  10.026
    3ARG    HG2 4486   8.683   2.710  10.117
    3ARG    HG3 4487   8.576   2.825  10.031
    3ARG     CD 4488   8.643   2.670   9.914
    3ARG    HD2 4489   8.538   2.640   9.921
    3ARG    HD3 4490   8.642   2.723   9.819
    3ARG     NE 4491   8.725   2.553   9.913
    3ARG     HE 4492   8.693   2.480   9.974
    3ARG     CZ 4493   8.826   2.528   9.829
    3ARG    NH1 4494   8.847   2.598   9.719
    3ARG   HH11 4495   8.812   2.691   9.709
    3ARG   HH12 4496   8.916   2.575   9.651
    3ARG    NH2 4497   8.901   2.418   9.857
    3ARG   HH21 4498   8.880   2.355   9.932
    3ARG   HH22 4499   8.971   2.393   9.788
    3ARG      C 4500   8.708   3.052  10.148
    3ARG      O 4501   8.648   3.036  10.253
    4TRP      N 4502   8.686   3.159  10.071
    4TRP      H 4503   8.735   3.168   9.983
    4TRP     CA 4504   8.585   3.263  10.103
    4TRP     HA 4505   8.512   3.224  10.174
    4TRP     CB 4506   8.663   3.382  10.174
    4TRP    HB2 4507   8.757   3.403  10.122
    4TRP    HB3 4508   8.599   3.469  10.188
    4TRP     CG 4509   8.710   3.351  10.312
    4TRP    CD1 4510   8.633   3.353  10.422
    4TRP    HD1 4511   8.527   3.374  10.427
    4TRP    NE1 4512   8.711   3.333  10.531
    4TRP    HE1 4513   8.671   3.324  10.625
    4TRP    CE2 4514   8.842   3.315  10.498
    4TRP    CZ2 4515   8.961   3.288  10.568
    4TRP    HZ2 4516   8.973   3.280  10.675
    4TRP    CH2 4517   9.077   3.264  10.495
    4TRP    HH2 4518   9.172   3.246  10.541
    4TRP    CZ3 4519   9.074   3.245  10.357
    4TRP    HZ3 4520   9.168   3.228  10.307
    4TRP    CE3 4521   8.957   3.272  10.280
    4TRP    HE3 4522   8.956   3.261  10.171
    4TRP    CD2 4523   8.839   3.311  10.350
    4TRP      C 4524   8.511   3.318   9.969
    4TRP      O 4525   8.559   3.289   9.859
    5PRO      N 4526   8.407   3.399   9.982
    5PRO     CD 4527   8.328   3.399  10.102
    5PRO    HD2 4528   8.353   3.483  10.166
    5PRO    HD3 4529   8.331   3.306  10.162
    5PRO     CG 4530   8.182   3.419  10.050
    5PRO    HG2 4531   8.116   3.462  10.125
    5PRO    HG3 4532   8.141   3.321  10.023
    5PRO     CB 4533   8.204   3.513   9.934
    5PRO    HB2 4534   8.226   3.615   9.969
    5PRO    HB3 4535   8.119   3.500   9.868
    5PRO     CA 4536   8.332   3.459   9.873
    5PRO     HA 4537   8.305   3.380   9.804
    5PRO      C 4538   8.408   3.568   9.795
    5PRO      O 4539   8.509   3.612   9.858
    6TRP      N 4540   8.365   3.629   9.685
    6TRP      H 4541   8.289   3.576   9.644
    6TRP     CA 4542   8.428   3.749   9.618
    6TRP     HA 4543   8.537   3.741   9.619
    6TRP     CB 4544   8.383   3.744   9.466
    6TRP    HB2 4545   8.274   3.734   9.464
    6TRP    HB3 4546   8.405   3.833   9.408
    6TRP     CG 4547   8.447   3.636   9.379
    6TRP    CD1 4548   8.393   3.514   9.351
    6TRP    HD1 4549   8.291   3.492   9.384
    6TRP    NE1 4550   8.479   3.427   9.279
    6TRP    HE1 4551   8.453   3.331   9.262
    6TRP    CE2 4552   8.601   3.487   9.275
    6TRP    CZ2 4553   8.726   3.447   9.226
    6TRP    HZ2 4554   8.742   3.344   9.198
    6TRP    CH2 4555   8.835   3.531   9.221
    6TRP    HH2 4556   8.927   3.486   9.187
    6TRP    CZ3 4557   8.832   3.662   9.273
    6TRP    HZ3 4558   8.919   3.725   9.275
    6TRP    CE3 4559   8.706   3.703   9.327
    6TRP    HE3 4560   8.696   3.804   9.365
    6TRP    CD2 4561   8.587   3.620   9.327
    6TRP      C 4562   8.397   3.880   9.678
    6TRP      O 4563   8.459   3.982   9.644
    7TRP      N 4564   8.299   3.882   9.772
    7TRP      H 4565   8.256   3.792   9.790
    7TRP     CA 4566   8.243   4.005   9.829
    7TRP     HA 4567   8.224   4.072   9.746
    7TRP     CB 4568   8.116   3.970   9.908
    7TRP    HB2 4569   8.140   3.956  10.012
    7TRP    HB3 4570   8.057   4.060   9.910
    7TRP     CG 4571   8.017   3.865   9.860
    7TRP    CD1 4572   7.921   3.804   9.936
    7TRP    HD1 4573   7.906   3.825  10.041
    7TRP    NE1 4574   7.844   3.713   9.869
    7TRP    HE1 4575   7.777   3.658   9.920
    7TRP    CE2 4576   7.882   3.716   9.735
    7TRP    CZ2 4577   7.828   3.648   9.627
    7TRP    HZ2 4578   7.746   3.579   9.645
    7TRP    CH2 4579   7.885   3.662   9.500
    7TRP    HH2 4580   7.838   3.610   9.417
    7TRP    CZ3 4581   7.994   3.749   9.484
    7TRP    HZ3 4582   8.045   3.755   9.388
    7TRP    CE3 4583   8.035   3.831   9.594
    7TRP    HE3 4584   8.102   3.913   9.580
    7TRP    CD2 4585   7.986   3.812   9.727
    7TRP      C 4586   8.350   4.067   9.915
    7TRP      O 4587   8.422   3.993   9.982
    8PRO      N 4588   8.356   4.202   9.935
    8PRO     CD 4589   8.260   4.302   9.890
    8PRO    HD2 4590   8.158   4.276   9.922
    8PRO    HD3 4591   8.269   4.310   9.782
    8PRO     CG 4592   8.298   4.427   9.967
    8PRO    HG2 4593   8.234   4.438  10.054
    8PRO    HG3 4594   8.280   4.515   9.906
    8PRO     CB 4595   8.449   4.411  10.001
    8PRO    HB2 4596   8.469   4.455  10.099
    8PRO    HB3 4597   8.510   4.443   9.915
    8PRO     CA 4598   8.466   4.261  10.014
    8PRO     HA 4599   8.563   4.241   9.970
    8PRO      C 4600   8.466   4.223  10.161
    8PRO      O 4601   8.368   4.256  10.235
    9TRP      N 4602   8.576   4.153  10.200
    9TRP      H 4603   8.644   4.128  10.132
    9TRP     CA 4604   8.606   4.115  10.340
    9TRP     HA 4605   8.564   4.184  10.413
    9TRP     CB 4606   8.552   3.969  10.360
    9TRP    HB2 4607   8.592   3.916  10.275
    9TRP    HB3 4608   8.595   3.933  10.453
    9TRP     CG 4609   8.399   3.948  10.352
    9TRP    CD1 4610   8.322   3.874  10.268
    9TRP    HD1 4611   8.357   3.805  10.194
    9TRP    NE1 4612   8.186   3.887  10.294
    9TRP    HE1 4613   8.108   3.840  10.249
    9TRP    CE2 4614   8.163   3.988  10.386
    9TRP    CZ2 4615   8.050   4.044  10.449
    9TRP    HZ2 4616   7.952   4.011  10.421
    9TRP    CH2 4617   8.067   4.126  10.560
    9TRP    HH2 4618   7.975   4.157  10.607
    9TRP    CZ3 4619   8.197   4.161  10.601
    9TRP    HZ3 4620   8.201   4.228  10.685
    9TRP    CE3 4621   8.312   4.110  10.536
    9TRP    HE3 4622   8.409   4.130  10.578
    9TRP    CD2 4623   8.296   4.025  10.425
    9TRP      C 4624   8.759   4.117  10.362
    9TRP      O 4625   8.833   4.047  10.299
   10ARG      N 4626   8.803   4.197  10.458
   10ARG      H 4627   8.736   4.267  10.491
   10ARG     CA 4628   8.936   4.201  10.500
   10ARG     HA 4629   9.000   4.196  10.413
   10ARG     CB 4630   8.955   4.329  10.580
   10ARG    HB2 4631   8.886   4.332  10.665
   10ARG    HB3 4632   9.054   4.318  10.627
   10ARG     CG 4633   8.946   4.459  10.505
   10ARG    HG2 4634   9.024   4.449  10.428
   10ARG    HG3 4635   8.858   4.471  10.443
   10ARG     CD 4636   8.971   4.586  10.597
   10ARG    HD2 4637   8.984   4.675  10.536
   10ARG    HD3 4638   8.892   4.595  10.673
   10ARG     NE 4639   9.106   4.576  10.662
   10ARG     HE 4640   9.184   4.578  10.598
   10ARG     CZ 4641   9.125   4.551  10.793
   10ARG    NH1 4642   9.030   4.492  10.863
   10ARG   HH11 4643   8.951   4.443  10.824
   10ARG   HH12 4644   9.046   4.490  10.963
   10ARG    NH2 4645   9.237   4.584  10.853
   10ARG   HH21 4646   9.306   4.647  10.814
   10ARG   HH22 4647   9.246   4.557  10.949
   10ARG      C 4648   8.967   4.080  10.588
   10ARG      O 4649   8.883   4.036  10.669
   11ARG      N 4650   9.085   4.017  10.579
   11ARG      H 4651   9.148   4.056  10.510
   11ARG     CA 4652   9.139   3.904  10.656
   11ARG     HA 4653   9.102   3.927  10.758
   11ARG     CB 4654   9.079   3.762  10.611
   11ARG    HB2 4655   9.137   3.682  10.659
   11ARG    HB3 4656   8.974   3.756  10.639
   11ARG     CG 4657   9.097   3.737  10.460
   11ARG    HG2 4658   9.053   3.822  10.409
   11ARG    HG3 4659   9.203   3.741  10.433
   11ARG     CD 4660   9.020   3.606  10.407
   11ARG    HD2 4661   9.089   3.528  10.435
   11ARG    HD3 4662   8.922   3.601  10.455
   11ARG     NE 4663   9.013   3.610  10.259
   11ARG     HE 4664   9.095   3.609  10.199
   11ARG     CZ 4665   8.904   3.639  10.192
   11ARG    NH1 4666   8.786   3.679  10.234
   11ARG   HH11 4667   8.759   3.684  10.331
   11ARG   HH12 4668   8.723   3.721  10.167
   11ARG    NH2 4669   8.912   3.639  10.062
   11ARG   HH21 4670   9.004   3.634  10.022
   11ARG   HH22 4671   8.832   3.626  10.002
   11ARG      C 4672   9.290   3.912  10.660
   11ARG      O 4673   9.345   3.952  10.556
   12LYS      N 4674   9.357   3.858  10.762
   12LYS      H 4675   9.298   3.829  10.838
   12LYS     CA 4676   9.505   3.845  10.772
   12LYS     HA 4677   9.531   3.949  10.784
   12LYS     CB 4678   9.533   3.760  10.899
   12LYS    HB2 4679   9.463   3.782  10.980
   12LYS    HB3 4680   9.509   3.657  10.877
   12LYS     CG 4681   9.666   3.774  10.963
   12LYS    HG2 4682   9.745   3.760  10.890
   12LYS    HG3 4683   9.673   3.873  11.011
   12LYS     CD 4684   9.686   3.675  11.071
   12LYS    HD2 4685   9.615   3.693  11.152
   12LYS    HD3 4686   9.677   3.574  11.032
   12LYS     CE 4687   9.836   3.690  11.119
   12LYS    HE2 4688   9.902   3.682  11.033
   12LYS    HE3 4689   9.868   3.785  11.164
   12LYS     NZ 4690   9.876   3.582  11.213
   12LYS    HZ1 4691   9.844   3.594  11.308
   12LYS    HZ2 4692   9.853   3.489  11.183
   12LYS    HZ3 4693   9.977   3.592  11.223
   12LYS      C 4694   9.585   3.797  10.651
   12LYS      O 4695   9.544   3.704  10.585
   13NHE      N 4696   9.707   3.857  10.644
   13NHE    HN1 4697   9.734   3.935  10.705
   13NHE    HN2 4698   9.777   3.830  10.578
    1ILE      N 4699   1.974   5.007   6.278
    1ILE     H1 4700   1.920   5.088   6.303
    1ILE     H2 4701   1.925   4.918   6.277
    1ILE     H3 4702   1.988   5.030   6.180
    1ILE     CA 4703   2.111   4.990   6.330
    1ILE     HA 4704   2.162   4.922   6.264
    1ILE     CB 4705   2.186   5.130   6.337
    1ILE     HB 4706   2.179   5.193   6.248
    1ILE    CG2 4707   2.118   5.206   6.452
    1ILE   HG21 4708   2.172   5.195   6.545
    1ILE   HG22 4709   2.107   5.314   6.433
    1ILE   HG23 4710   2.018   5.169   6.471
    1ILE    CG1 4711   2.340   5.119   6.347
    1ILE   HG12 4712   2.379   5.042   6.280
    1ILE   HG13 4713   2.368   5.094   6.449
    1ILE    CD1 4714   2.413   5.250   6.309
    1ILE   HD11 4715   2.391   5.331   6.378
    1ILE   HD12 4716   2.519   5.236   6.331
    1ILE   HD13 4717   2.401   5.285   6.207
    1ILE      C 4718   2.110   4.911   6.460
    1ILE      O 4719   2.016   4.924   6.535
    2LEU      N 4720   2.215   4.830   6.482
    2LEU      H 4721   2.288   4.831   6.413
    2LEU     CA 4722   2.248   4.779   6.616
    2LEU     HA 4723   2.171   4.801   6.692
    2LEU     CB 4724   2.252   4.627   6.618
    2LEU    HB2 4725   2.353   4.599   6.587
    2LEU    HB3 4726   2.239   4.592   6.720
    2LEU     CG 4727   2.156   4.549   6.529
    2LEU     HG 4728   2.170   4.564   6.422
    2LEU    CD1 4729   2.191   4.395   6.540
    2LEU   HD11 4730   2.275   4.376   6.474
    2LEU   HD12 4731   2.216   4.370   6.644
    2LEU   HD13 4732   2.109   4.326   6.515
    2LEU    CD2 4733   2.014   4.567   6.570
    2LEU   HD21 4734   2.013   4.562   6.678
    2LEU   HD22 4735   1.987   4.670   6.549
    2LEU   HD23 4736   1.942   4.499   6.525
    2LEU      C 4737   2.380   4.834   6.672
    2LEU      O 4738   2.471   4.877   6.599
    3ARG      N 4739   2.384   4.849   6.803
    3ARG      H 4740   2.304   4.816   6.856
    3ARG     CA 4741   2.494   4.914   6.878
    3ARG     HA 4742   2.579   4.926   6.810
    3ARG     CB 4743   2.459   5.059   6.925
    3ARG    HB2 4744   2.554   5.105   6.954
    3ARG    HB3 4745   2.428   5.111   6.835
    3ARG     CG 4746   2.353   5.078   7.038
    3ARG    HG2 4747   2.258   5.030   7.015
    3ARG    HG3 4748   2.393   5.041   7.132
    3ARG     CD 4749   2.321   5.224   7.070
    3ARG    HD2 4750   2.285   5.226   7.174
    3ARG    HD3 4751   2.415   5.279   7.080
    3ARG     NE 4752   2.226   5.287   6.986
    3ARG     HE 4753   2.131   5.269   7.010
    3ARG     CZ 4754   2.252   5.379   6.891
    3ARG    NH1 4755   2.369   5.440   6.881
    3ARG   HH11 4756   2.452   5.400   6.919
    3ARG   HH12 4757   2.387   5.513   6.817
    3ARG    NH2 4758   2.148   5.413   6.811
    3ARG   HH21 4759   2.055   5.378   6.824
    3ARG   HH22 4760   2.165   5.489   6.745
    3ARG      C 4761   2.540   4.834   6.998
    3ARG      O 4762   2.470   4.748   7.049
    4TRP      N 4763   2.670   4.846   7.029
    4TRP      H 4764   2.724   4.920   6.987
    4TRP     CA 4765   2.738   4.760   7.130
    4TRP     HA 4766   2.663   4.715   7.196
    4TRP     CB 4767   2.811   4.644   7.050
    4TRP    HB2 4768   2.860   4.683   6.961
    4TRP    HB3 4769   2.875   4.585   7.116
    4TRP     CG 4770   2.718   4.542   6.991
    4TRP    CD1 4771   2.660   4.442   7.059
    4TRP    HD1 4772   2.669   4.421   7.165
    4TRP    NE1 4773   2.594   4.362   6.972
    4TRP    HE1 4774   2.537   4.284   7.004
    4TRP    CE2 4775   2.603   4.407   6.843
    4TRP    CZ2 4776   2.553   4.367   6.719
    4TRP    HZ2 4777   2.494   4.279   6.698
    4TRP    CH2 4778   2.576   4.449   6.608
    4TRP    HH2 4779   2.543   4.423   6.509
    4TRP    CZ3 4780   2.627   4.577   6.622
    4TRP    HZ3 4781   2.643   4.635   6.531
    4TRP    CE3 4782   2.681   4.624   6.745
    4TRP    HE3 4783   2.726   4.723   6.755
    4TRP    CD2 4784   2.673   4.537   6.859
    4TRP      C 4785   2.846   4.845   7.216
    4TRP      O 4786   2.879   4.957   7.176
    5PRO      N 4787   2.903   4.788   7.321
    5PRO     CD 4788   2.839   4.680   7.390
    5PRO    HD2 4789   2.881   4.584   7.363
    5PRO    HD3 4790   2.729   4.674   7.380
    5PRO     CG 4791   2.872   4.706   7.540
    5PRO    HG2 4792   2.868   4.616   7.601
    5PRO    HG3 4793   2.798   4.776   7.580
    5PRO     CB 4794   3.013   4.760   7.530
    5PRO    HB2 4795   3.085   4.680   7.509
    5PRO    HB3 4796   3.028   4.819   7.620
    5PRO     CA 4797   3.005   4.847   7.406
    5PRO     HA 4798   2.969   4.945   7.437
    5PRO      C 4799   3.143   4.865   7.339
    5PRO      O 4800   3.156   4.794   7.236
    6TRP      N 4801   3.247   4.927   7.393
    6TRP      H 4802   3.216   4.985   7.470
    6TRP     CA 4803   3.389   4.929   7.339
    6TRP     HA 4804   3.388   4.938   7.231
    6TRP     CB 4805   3.457   5.060   7.397
    6TRP    HB2 4806   3.442   5.060   7.505
    6TRP    HB3 4807   3.564   5.067   7.381
    6TRP     CG 4808   3.410   5.193   7.337
    6TRP    CD1 4809   3.315   5.275   7.389
    6TRP    HD1 4810   3.273   5.252   7.487
    6TRP    NE1 4811   3.281   5.385   7.307
    6TRP    HE1 4812   3.205   5.446   7.331
    6TRP    CE2 4813   3.343   5.365   7.188
    6TRP    CZ2 4814   3.341   5.435   7.066
    6TRP    HZ2 4815   3.267   5.512   7.049
    6TRP    CH2 4816   3.423   5.403   6.959
    6TRP    HH2 4817   3.407   5.460   6.869
    6TRP    CZ3 4818   3.510   5.293   6.962
    6TRP    HZ3 4819   3.570   5.264   6.877
    6TRP    CE3 4820   3.511   5.218   7.084
    6TRP    HE3 4821   3.579   5.135   7.095
    6TRP    CD2 4822   3.432   5.253   7.201
    6TRP      C 4823   3.470   4.810   7.369
    6TRP      O 4824   3.580   4.791   7.313
    7TRP      N 4825   3.419   4.722   7.459
    7TRP      H 4826   3.330   4.749   7.498
    7TRP     CA 4827   3.493   4.608   7.514
    7TRP     HA 4828   3.591   4.645   7.541
    7TRP     CB 4829   3.415   4.550   7.633
    7TRP    HB2 4830   3.353   4.468   7.601
    7TRP    HB3 4831   3.489   4.500   7.694
    7TRP     CG 4832   3.342   4.638   7.733
    7TRP    CD1 4833   3.246   4.598   7.821
    7TRP    HD1 4834   3.211   4.496   7.828
    7TRP    NE1 4835   3.195   4.697   7.900
    7TRP    HE1 4836   3.117   4.677   7.961
    7TRP    CE2 4837   3.267   4.813   7.873
    7TRP    CZ2 4838   3.257   4.937   7.934
    7TRP    HZ2 4839   3.183   4.952   8.012
    7TRP    CH2 4840   3.336   5.043   7.887
    7TRP    HH2 4841   3.330   5.138   7.939
    7TRP    CZ3 4842   3.427   5.020   7.783
    7TRP    HZ3 4843   3.483   5.103   7.740
    7TRP    CE3 4844   3.446   4.886   7.736
    7TRP    HE3 4845   3.528   4.861   7.672
    7TRP    CD2 4846   3.360   4.778   7.773
    7TRP      C 4847   3.511   4.508   7.402
    7TRP      O 4848   3.419   4.491   7.323
    8PRO      N 4849   3.619   4.424   7.399
    8PRO     CD 4850   3.721   4.407   7.501
    8PRO    HD2 4851   3.676   4.388   7.598
    8PRO    HD3 4852   3.783   4.497   7.500
    8PRO     CG 4853   3.794   4.281   7.460
    8PRO    HG2 4854   3.756   4.196   7.517
    8PRO    HG3 4855   3.899   4.289   7.486
    8PRO     CB 4856   3.773   4.268   7.307
    8PRO    HB2 4857   3.764   4.163   7.280
    8PRO    HB3 4858   3.848   4.329   7.254
    8PRO     CA 4859   3.638   4.332   7.284
    8PRO     HA 4860   3.649   4.385   7.190
    8PRO      C 4861   3.532   4.225   7.271
    8PRO      O 4862   3.517   4.139   7.363
    9TRP      N 4863   3.459   4.232   7.157
    9TRP      H 4864   3.475   4.306   7.094
    9TRP     CA 4865   3.359   4.131   7.114
    9TRP     HA 4866   3.380   4.031   7.152
    9TRP     CB 4867   3.219   4.184   7.162
    9TRP    HB2 4868   3.218   4.287   7.128
    9TRP    HB3 4869   3.144   4.124   7.111
    9TRP     CG 4870   3.195   4.193   7.315
    9TRP    CD1 4871   3.167   4.298   7.396
    9TRP    HD1 4872   3.147   4.398   7.365
    9TRP    NE1 4873   3.157   4.262   7.530
    9TRP    HE1 4874   3.134   4.320   7.610
    9TRP    CE2 4875   3.197   4.130   7.548
    9TRP    CZ2 4876   3.207   4.041   7.657
    9TRP    HZ2 4877   3.186   4.076   7.757
    9TRP    CH2 4878   3.224   3.906   7.634
    9TRP    HH2 4879   3.221   3.844   7.722
    9TRP    CZ3 4880   3.242   3.860   7.502
    9TRP    HZ3 4881   3.259   3.754   7.493
    9TRP    CE3 4882   3.238   3.948   7.391
    9TRP    HE3 4883   3.241   3.907   7.291
    9TRP    CD2 4884   3.219   4.086   7.414
    9TRP      C 4885   3.359   4.119   6.961
    9TRP      O 4886   3.335   4.213   6.889
   10ARG      N 4887   3.384   3.999   6.911
   10ARG      H 4888   3.424   3.932   6.977
   10ARG     CA 4889   3.376   3.968   6.775
   10ARG     HA 4890   3.418   4.050   6.718
   10ARG     CB 4891   3.447   3.836   6.753
   10ARG    HB2 4892   3.403   3.757   6.815
   10ARG    HB3 4893   3.421   3.806   6.651
   10ARG     CG 4894   3.597   3.836   6.772
   10ARG    HG2 4895   3.631   3.912   6.700
   10ARG    HG3 4896   3.632   3.878   6.865
   10ARG     CD 4897   3.662   3.694   6.743
   10ARG    HD2 4898   3.770   3.703   6.738
   10ARG    HD3 4899   3.628   3.619   6.816
   10ARG     NE 4900   3.631   3.650   6.604
   10ARG     HE 4901   3.669   3.709   6.531
   10ARG     CZ 4902   3.545   3.551   6.574
   10ARG    NH1 4903   3.453   3.515   6.660
   10ARG   HH11 4904   3.425   3.568   6.741
   10ARG   HH12 4905   3.403   3.430   6.636
   10ARG    NH2 4906   3.552   3.489   6.457
   10ARG   HH21 4907   3.629   3.494   6.394
   10ARG   HH22 4908   3.481   3.420   6.440
   10ARG      C 4909   3.229   3.954   6.734
   10ARG      O 4910   3.145   3.902   6.810
   11ARG      N 4911   3.187   4.000   6.615
   11ARG      H 4912   3.259   4.044   6.559
   11ARG     CA 4913   3.054   3.993   6.552
   11ARG     HA 4914   3.021   3.892   6.581
   11ARG     CB 4915   2.950   4.099   6.611
   11ARG    HB2 4916   2.860   4.101   6.547
   11ARG    HB3 4917   2.923   4.073   6.713
   11ARG     CG 4918   3.004   4.244   6.605
   11ARG    HG2 4919   3.100   4.243   6.655
   11ARG    HG3 4920   3.027   4.271   6.502
   11ARG     CD 4921   2.912   4.350   6.681
   11ARG    HD2 4922   2.835   4.369   6.608
   11ARG    HD3 4923   2.877   4.306   6.775
   11ARG     NE 4924   2.988   4.476   6.701
   11ARG     HE 4925   3.022   4.533   6.624
   11ARG     CZ 4926   3.040   4.513   6.815
   11ARG    NH1 4927   3.046   4.451   6.931
   11ARG   HH11 4928   3.000   4.363   6.950
   11ARG   HH12 4929   3.111   4.484   7.000
   11ARG    NH2 4930   3.104   4.626   6.818
   11ARG   HH21 4931   3.126   4.668   6.729
   11ARG   HH22 4932   3.118   4.681   6.902
   11ARG      C 4933   3.069   3.994   6.401
   11ARG      O 4934   3.159   4.067   6.356
   12LYS      N 4935   2.976   3.936   6.325
   12LYS      H 4936   2.909   3.882   6.377
   12LYS     CA 4937   2.969   3.943   6.176
   12LYS     HA 4938   3.055   3.882   6.152
   12LYS     CB 4939   2.834   3.877   6.136
   12LYS    HB2 4940   2.809   3.792   6.199
   12LYS    HB3 4941   2.754   3.946   6.158
   12LYS     CG 4942   2.824   3.822   5.999
   12LYS    HG2 4943   2.852   3.896   5.925
   12LYS    HG3 4944   2.886   3.732   5.991
   12LYS     CD 4945   2.686   3.779   5.967
   12LYS    HD2 4946   2.656   3.696   6.031
   12LYS    HD3 4947   2.617   3.863   5.976
   12LYS     CE 4948   2.684   3.738   5.813
   12LYS    HE2 4949   2.724   3.820   5.754
   12LYS    HE3 4950   2.746   3.654   5.782
   12LYS     NZ 4951   2.547   3.713   5.764
   12LYS    HZ1 4952   2.508   3.624   5.788
   12LYS    HZ2 4953   2.479   3.784   5.786
   12LYS    HZ3 4954   2.557   3.705   5.663
   12LYS      C 4955   2.993   4.076   6.104
   12LYS      O 4956   2.943   4.177   6.148
   13NHE      N 4957   3.056   4.058   5.986
   13NHE    HN1 4958   3.095   3.969   5.956
   13NHE    HN2 4959   3.070   4.134   5.920
    1ILE      N 4960   6.869   9.479   1.591
    1ILE     H1 4961   6.952   9.422   1.582
    1ILE     H2 4962   6.861   9.557   1.526
    1ILE     H3 4963   6.803   9.411   1.556
    1ILE     CA 4964   6.819   9.515   1.724
    1ILE     HA 4965   6.714   9.541   1.713
    1ILE     CB 4966   6.836   9.394   1.825
    1ILE     HB 4967   6.805   9.296   1.790
    1ILE    CG2 4968   6.988   9.385   1.851
    1ILE   HG21 4969   7.016   9.439   1.941
    1ILE   HG22 4970   7.025   9.282   1.860
    1ILE   HG23 4971   7.045   9.430   1.770
    1ILE    CG1 4972   6.748   9.403   1.953
    1ILE   HG12 4973   6.647   9.437   1.929
    1ILE   HG13 4974   6.793   9.474   2.022
    1ILE    CD1 4975   6.733   9.269   2.027
    1ILE   HD11 4976   6.827   9.232   2.066
    1ILE   HD12 4977   6.680   9.288   2.119
    1ILE   HD13 4978   6.683   9.189   1.972
    1ILE      C 4979   6.877   9.647   1.771
    1ILE      O 4980   6.990   9.676   1.738
    2LEU      N 4981   6.798   9.725   1.846
    2LEU      H 4982   6.708   9.689   1.869
    2LEU     CA 4983   6.851   9.835   1.929
    2LEU     HA 4984   6.958   9.854   1.913
    2LEU     CB 4985   6.788   9.968   1.894
    2LEU    HB2 4986   6.696   9.974   1.952
    2LEU    HB3 4987   6.853  10.048   1.927
    2LEU     CG 4988   6.750   9.995   1.749
    2LEU     HG 4989   6.673   9.930   1.708
    2LEU    CD1 4990   6.675  10.135   1.742
    2LEU   HD11 4991   6.571  10.116   1.770
    2LEU   HD12 4992   6.721  10.206   1.810
    2LEU   HD13 4993   6.676  10.185   1.644
    2LEU    CD2 4994   6.869  10.004   1.660
    2LEU   HD21 4995   6.944  10.061   1.715
    2LEU   HD22 4996   6.913   9.904   1.654
    2LEU   HD23 4997   6.853  10.044   1.560
    2LEU      C 4998   6.835   9.809   2.080
    2LEU      O 4999   6.748   9.734   2.127
    3ARG      N 5000   6.930   9.860   2.156
    3ARG      H 5001   7.001   9.917   2.111
    3ARG     CA 5002   6.945   9.836   2.302
    3ARG     HA 5003   6.852   9.790   2.338
    3ARG     CB 5004   7.057   9.734   2.337
    3ARG    HB2 5005   7.041   9.704   2.440
    3ARG    HB3 5006   7.034   9.645   2.278
    3ARG     CG 5007   7.206   9.775   2.315
    3ARG    HG2 5008   7.226   9.809   2.214
    3ARG    HG3 5009   7.233   9.852   2.387
    3ARG     CD 5010   7.307   9.665   2.345
    3ARG    HD2 5011   7.402   9.714   2.371
    3ARG    HD3 5012   7.282   9.618   2.440
    3ARG     NE 5013   7.330   9.571   2.240
    3ARG     HE 5014   7.396   9.602   2.171
    3ARG     CZ 5015   7.286   9.444   2.236
    3ARG    NH1 5016   7.236   9.383   2.341
    3ARG   HH11 5017   7.197   9.433   2.418
    3ARG   HH12 5018   7.210   9.286   2.342
    3ARG    NH2 5019   7.306   9.378   2.119
    3ARG   HH21 5020   7.355   9.418   2.041
    3ARG   HH22 5021   7.281   9.279   2.118
    3ARG      C 5022   6.968   9.963   2.381
    3ARG      O 5023   7.010  10.065   2.328
    4TRP      N 5024   6.919   9.964   2.505
    4TRP      H 5025   6.888   9.877   2.547
    4TRP     CA 5026   6.914  10.085   2.591
    4TRP     HA 5027   6.986  10.160   2.553
    4TRP     CB 5028   6.768  10.146   2.577
    4TRP    HB2 5029   6.693  10.067   2.581
    4TRP    HB3 5030   6.752  10.227   2.648
    4TRP     CG 5031   6.740  10.209   2.444
    4TRP    CD1 5032   6.780  10.331   2.407
    4TRP    HD1 5033   6.840  10.401   2.464
    4TRP    NE1 5034   6.725  10.360   2.286
    4TRP    HE1 5035   6.749  10.446   2.236
    4TRP    CE2 5036   6.649  10.258   2.238
    4TRP    CZ2 5037   6.575  10.234   2.121
    4TRP    HZ2 5038   6.559  10.303   2.039
    4TRP    CH2 5039   6.518  10.109   2.103
    4TRP    HH2 5040   6.457  10.084   2.018
    4TRP    CZ3 5041   6.549  10.002   2.186
    4TRP    HZ3 5042   6.500   9.907   2.166
    4TRP    CE3 5043   6.623  10.019   2.307
    4TRP    HE3 5044   6.644   9.935   2.374
    4TRP    CD2 5045   6.671  10.150   2.336
    4TRP      C 5046   6.945  10.050   2.746
    4TRP      O 5047   6.944   9.932   2.782
    5PRO      N 5048   6.961  10.149   2.832
    5PRO     CD 5049   7.003  10.279   2.788
    5PRO    HD2 5050   6.920  10.348   2.782
    5PRO    HD3 5051   7.058  10.282   2.692
    5PRO     CG 5052   7.099  10.328   2.901
    5PRO    HG2 5053   7.107  10.437   2.906
    5PRO    HG3 5054   7.200  10.289   2.880
    5PRO     CB 5055   7.032  10.272   3.023
    5PRO    HB2 5056   6.942  10.329   3.049
    5PRO    HB3 5057   7.110  10.263   3.099
    5PRO     CA 5058   6.986  10.136   2.975
    5PRO     HA 5059   7.068  10.066   2.988
    5PRO      C 5060   6.865  10.084   3.056
    5PRO      O 5061   6.756  10.095   2.994
    6TRP      N 5062   6.867  10.052   3.185
    6TRP      H 5063   6.962  10.041   3.216
    6TRP     CA 5064   6.747  10.020   3.272
    6TRP     HA 5065   6.675   9.960   3.217
    6TRP     CB 5066   6.801   9.932   3.391
    6TRP    HB2 5067   6.885   9.984   3.437
    6TRP    HB3 5068   6.729   9.914   3.472
    6TRP     CG 5069   6.840   9.787   3.358
    6TRP    CD1 5070   6.966   9.745   3.329
    6TRP    HD1 5071   7.050   9.814   3.341
    6TRP    NE1 5072   6.974   9.609   3.288
    6TRP    HE1 5073   7.061   9.570   3.256
    6TRP    CE2 5074   6.846   9.567   3.270
    6TRP    CZ2 5075   6.791   9.447   3.223
    6TRP    HZ2 5076   6.854   9.374   3.175
    6TRP    CH2 5077   6.656   9.420   3.225
    6TRP    HH2 5078   6.625   9.327   3.180
    6TRP    CZ3 5079   6.561   9.515   3.268
    6TRP    HZ3 5080   6.455   9.497   3.264
    6TRP    CE3 5081   6.616   9.640   3.313
    6TRP    HE3 5082   6.549   9.715   3.351
    6TRP    CD2 5083   6.758   9.668   3.319
    6TRP      C 5084   6.671  10.136   3.321
    6TRP      O 5085   6.560  10.122   3.376
    7TRP      N 5086   6.728  10.258   3.305
    7TRP      H 5087   6.818  10.256   3.260
    7TRP     CA 5088   6.675  10.382   3.363
    7TRP     HA 5089   6.652  10.360   3.466
    7TRP     CB 5090   6.781  10.492   3.348
    7TRP    HB2 5091   6.762  10.551   3.258
    7TRP    HB3 5092   6.760  10.564   3.426
    7TRP     CG 5093   6.930  10.467   3.364
    7TRP    CD1 5094   7.031  10.548   3.322
    7TRP    HD1 5095   7.015  10.642   3.270
    7TRP    NE1 5096   7.157  10.501   3.348
    7TRP    HE1 5097   7.237  10.551   3.312
    7TRP    CE2 5098   7.144  10.384   3.423
    7TRP    CZ2 5099   7.242  10.306   3.480
    7TRP    HZ2 5100   7.346  10.333   3.465
    7TRP    CH2 5101   7.207  10.188   3.548
    7TRP    HH2 5102   7.286  10.131   3.595
    7TRP    CZ3 5103   7.071  10.155   3.560
    7TRP    HZ3 5104   7.042  10.060   3.605
    7TRP    CE3 5105   6.972  10.248   3.515
    7TRP    HE3 5106   6.869  10.237   3.542
    7TRP    CD2 5107   7.004  10.363   3.436
    7TRP      C 5108   6.546  10.414   3.293
    7TRP      O 5109   6.538  10.393   3.171
    8PRO      N 5110   6.446  10.482   3.355
    8PRO     CD 5111   6.450  10.543   3.487
    8PRO    HD2 5112   6.537  10.610   3.497
    8PRO    HD3 5113   6.451  10.463   3.561
    8PRO     CG 5114   6.327  10.632   3.492
    8PRO    HG2 5115   6.355  10.735   3.468
    8PRO    HG3 5116   6.287  10.634   3.592
    8PRO     CB 5117   6.227  10.570   3.391
    8PRO    HB2 5118   6.171  10.649   3.342
    8PRO    HB3 5119   6.172  10.488   3.439
    8PRO     CA 5120   6.317  10.506   3.287
    8PRO     HA 5121   6.267  10.414   3.260
    8PRO      C 5122   6.327  10.597   3.166
    8PRO      O 5123   6.364  10.718   3.179
    9TRP      N 5124   6.292  10.538   3.049
    9TRP      H 5125   6.270  10.441   3.048
    9TRP     CA 5126   6.280  10.607   2.918
    9TRP     HA 5127   6.254  10.713   2.929
    9TRP     CB 5128   6.418  10.589   2.845
    9TRP    HB2 5129   6.437  10.483   2.852
    9TRP    HB3 5130   6.401  10.619   2.740
    9TRP     CG 5131   6.542  10.657   2.908
    9TRP    CD1 5132   6.658  10.605   2.956
    9TRP    HD1 5133   6.690  10.503   2.949
    9TRP    NE1 5134   6.743  10.703   3.008
    9TRP    HE1 5135   6.836  10.691   3.046
    9TRP    CE2 5136   6.678  10.825   3.016
    9TRP    CZ2 5137   6.711  10.955   3.057
    9TRP    HZ2 5138   6.808  10.974   3.102
    9TRP    CH2 5139   6.630  11.061   3.023
    9TRP    HH2 5140   6.668  11.158   3.051
    9TRP    CZ3 5141   6.509  11.037   2.956
    9TRP    HZ3 5142   6.449  11.125   2.937
    9TRP    CE3 5143   6.470  10.906   2.918
    9TRP    HE3 5144   6.382  10.893   2.857
    9TRP    CD2 5145   6.553  10.798   2.950
    9TRP      C 5146   6.168  10.543   2.835
    9TRP      O 5147   6.171  10.427   2.802
   10ARG      N 5148   6.070  10.624   2.797
   10ARG      H 5149   6.064  10.713   2.846
   10ARG     CA 5150   5.967  10.585   2.710
   10ARG     HA 5151   5.936  10.484   2.736
   10ARG     CB 5152   5.855  10.687   2.722
   10ARG    HB2 5153   5.892  10.787   2.698
   10ARG    HB3 5154   5.788  10.664   2.639
   10ARG     CG 5155   5.780  10.692   2.853
   10ARG    HG2 5156   5.742  10.590   2.863
   10ARG    HG3 5157   5.843  10.699   2.941
   10ARG     CD 5158   5.664  10.799   2.853
   10ARG    HD2 5159   5.601  10.786   2.940
   10ARG    HD3 5160   5.704  10.901   2.843
   10ARG     NE 5161   5.567  10.771   2.743
   10ARG     HE 5162   5.518  10.683   2.751
   10ARG     CZ 5163   5.556  10.846   2.631
   10ARG    NH1 5164   5.656  10.922   2.593
   10ARG   HH11 5165   5.751  10.916   2.626
   10ARG   HH12 5166   5.634  10.986   2.518
   10ARG    NH2 5167   5.446  10.843   2.559
   10ARG   HH21 5168   5.358  10.805   2.590
   10ARG   HH22 5169   5.447  10.897   2.474
   10ARG      C 5170   6.019  10.582   2.566
   10ARG      O 5171   6.100  10.666   2.525
   11ARG      N 5172   5.979  10.484   2.482
   11ARG      H 5173   5.916  10.417   2.523
   11ARG     CA 5174   6.010  10.464   2.339
   11ARG     HA 5175   6.009  10.568   2.301
   11ARG     CB 5176   6.157  10.404   2.314
   11ARG    HB2 5177   6.166  10.373   2.209
   11ARG    HB3 5178   6.233  10.477   2.340
   11ARG     CG 5179   6.180  10.273   2.394
   11ARG    HG2 5180   6.158  10.295   2.497
   11ARG    HG3 5181   6.105  10.198   2.365
   11ARG     CD 5182   6.331  10.220   2.387
   11ARG    HD2 5183   6.333  10.170   2.292
   11ARG    HD3 5184   6.399  10.305   2.397
   11ARG     NE 5185   6.352  10.117   2.492
   11ARG     HE 5186   6.301  10.029   2.495
   11ARG     CZ 5187   6.416  10.139   2.604
   11ARG    NH1 5188   6.468  10.249   2.653
   11ARG   HH11 5189   6.472  10.337   2.603
   11ARG   HH12 5190   6.491  10.252   2.751
   11ARG    NH2 5191   6.426  10.039   2.688
   11ARG   HH21 5192   6.369   9.959   2.670
   11ARG   HH22 5193   6.499  10.032   2.757
   11ARG      C 5194   5.897  10.390   2.272
   11ARG      O 5195   5.843  10.301   2.341
   12LYS      N 5196   5.875  10.406   2.142
   12LYS      H 5197   5.928  10.480   2.101
   12LYS     CA 5198   5.778  10.328   2.060
   12LYS     HA 5199   5.685  10.366   2.100
   12LYS     CB 5200   5.802  10.370   1.913
   12LYS    HB2 5201   5.827  10.475   1.903
   12LYS    HB3 5202   5.893  10.323   1.878
   12LYS     CG 5203   5.690  10.352   1.817
   12LYS    HG2 5204   5.652  10.250   1.821
   12LYS    HG3 5205   5.611  10.424   1.839
   12LYS     CD 5206   5.731  10.378   1.678
   12LYS    HD2 5207   5.760  10.482   1.665
   12LYS    HD3 5208   5.812  10.311   1.649
   12LYS     CE 5209   5.608  10.339   1.585
   12LYS    HE2 5210   5.577  10.237   1.608
   12LYS    HE3 5211   5.515  10.395   1.596
   12LYS     NZ 5212   5.644  10.341   1.441
   12LYS    HZ1 5213   5.648  10.432   1.399
   12LYS    HZ2 5214   5.729  10.292   1.418
   12LYS    HZ3 5215   5.564  10.298   1.394
   12LYS      C 5216   5.768  10.176   2.077
   12LYS      O 5217   5.869  10.111   2.086
   13NHE      N 5218   5.641  10.132   2.061
   13NHE    HN1 5219   5.561  10.194   2.053
   13NHE    HN2 5220   5.618  10.034   2.058
    1ILE      N 5221   6.776   9.344  10.493
    1ILE     H1 5222   6.706   9.282  10.457
    1ILE     H2 5223   6.744   9.438  10.517
    1ILE     H3 5224   6.790   9.300  10.582
    1ILE     CA 5225   6.910   9.350  10.432
    1ILE     HA 5226   6.977   9.392  10.506
    1ILE     CB 5227   6.957   9.204  10.390
    1ILE     HB 5228   6.944   9.125  10.464
    1ILE    CG2 5229   6.870   9.167  10.269
    1ILE   HG21 5230   6.920   9.189  10.175
    1ILE   HG22 5231   6.840   9.061  10.267
    1ILE   HG23 5232   6.778   9.223  10.268
    1ILE    CG1 5233   7.110   9.190  10.368
    1ILE   HG12 5234   7.167   9.243  10.445
    1ILE   HG13 5235   7.136   9.232  10.271
    1ILE    CD1 5236   7.160   9.044  10.371
    1ILE   HD11 5237   7.119   8.985  10.290
    1ILE   HD12 5238   7.265   9.045  10.343
    1ILE   HD13 5239   7.147   8.990  10.465
    1ILE      C 5240   6.917   9.454  10.322
    1ILE      O 5241   6.817   9.474  10.255
    2LEU      N 5242   7.032   9.519  10.307
    2LEU      H 5243   7.108   9.490  10.367
    2LEU     CA 5244   7.067   9.592  10.184
    2LEU     HA 5245   6.983   9.600  10.113
    2LEU     CB 5246   7.099   9.737  10.212
    2LEU    HB2 5247   7.205   9.741  10.238
    2LEU    HB3 5248   7.087   9.795  10.121
    2LEU     CG 5249   7.024   9.809  10.324
    2LEU     HG 5250   7.042   9.769  10.424
    2LEU    CD1 5251   7.086   9.954  10.341
    2LEU   HD11 5252   7.177   9.943  10.401
    2LEU   HD12 5253   7.110   9.996  10.243
    2LEU   HD13 5254   7.021  10.029  10.388
    2LEU    CD2 5255   6.880   9.825  10.295
    2LEU   HD21 5256   6.873   9.853  10.190
    2LEU   HD22 5257   6.835   9.725  10.296
    2LEU   HD23 5258   6.824   9.892  10.358
    2LEU      C 5259   7.183   9.528  10.105
    2LEU      O 5260   7.269   9.456  10.159
    3ARG      N 5261   7.177   9.542   9.974
    3ARG      H 5262   7.102   9.599   9.937
    3ARG     CA 5263   7.269   9.477   9.877
    3ARG     HA 5264   7.354   9.436   9.934
    3ARG     CB 5265   7.205   9.354   9.805
    3ARG    HB2 5266   7.287   9.299   9.759
    3ARG    HB3 5267   7.170   9.289   9.886
    3ARG     CG 5268   7.090   9.378   9.702
    3ARG    HG2 5269   7.008   9.435   9.743
    3ARG    HG3 5270   7.131   9.427   9.614
    3ARG     CD 5271   7.031   9.250   9.644
    3ARG    HD2 5272   6.989   9.277   9.545
    3ARG    HD3 5273   7.112   9.184   9.614
    3ARG     NE 5274   6.930   9.187   9.722
    3ARG     HE 5275   6.839   9.226   9.711
    3ARG     CZ 5276   6.945   9.074   9.793
    3ARG    NH1 5277   7.048   8.994   9.779
    3ARG   HH11 5278   7.136   9.026   9.743
    3ARG   HH12 5279   7.056   8.905   9.825
    3ARG    NH2 5280   6.841   9.041   9.874
    3ARG   HH21 5281   6.755   9.093   9.878
    3ARG   HH22 5282   6.847   8.951   9.921
    3ARG      C 5283   7.322   9.572   9.773
    3ARG      O 5284   7.266   9.678   9.748
    4TRP      N 5285   7.445   9.546   9.728
    4TRP      H 5286   7.487   9.457   9.748
    4TRP     CA 5287   7.522   9.638   9.640
    4TRP     HA 5288   7.453   9.709   9.592
    4TRP     CB 5289   7.619   9.721   9.735
    4TRP    HB2 5290   7.666   9.655   9.809
    4TRP    HB3 5291   7.690   9.781   9.677
    4TRP     CG 5292   7.551   9.821   9.821
    4TRP    CD1 5293   7.509   9.942   9.781
    4TRP    HD1 5294   7.515   9.983   9.681
    4TRP    NE1 5295   7.463  10.011   9.889
    4TRP    HE1 5296   7.420  10.103   9.879
    4TRP    CE2 5297   7.471   9.938  10.004
    4TRP    CZ2 5298   7.437   9.958  10.138
    4TRP    HZ2 5299   7.396  10.048  10.182
    4TRP    CH2 5300   7.450   9.852  10.227
    4TRP    HH2 5301   7.429   9.861  10.332
    4TRP    CZ3 5302   7.477   9.723  10.183
    4TRP    HZ3 5303   7.487   9.645  10.258
    4TRP    CE3 5304   7.513   9.695  10.048
    4TRP    HE3 5305   7.539   9.594  10.014
    4TRP    CD2 5306   7.515   9.805   9.956
    4TRP      C 5307   7.608   9.557   9.528
    4TRP      O 5308   7.622   9.436   9.541
    5PRO      N 5309   7.668   9.626   9.433
    5PRO     CD 5310   7.621   9.756   9.394
    5PRO    HD2 5311   7.682   9.835   9.436
    5PRO    HD3 5312   7.515   9.777   9.415
    5PRO     CG 5313   7.640   9.757   9.239
    5PRO    HG2 5314   7.650   9.858   9.198
    5PRO    HG3 5315   7.552   9.711   9.192
    5PRO     CB 5316   7.768   9.679   9.224
    5PRO    HB2 5317   7.855   9.739   9.254
    5PRO    HB3 5318   7.768   9.639   9.123
    5PRO     CA 5319   7.752   9.570   9.328
    5PRO     HA 5320   7.697   9.488   9.282
    5PRO      C 5321   7.888   9.515   9.376
    5PRO      O 5322   7.920   9.559   9.490
    6TRP      N 5323   7.975   9.450   9.301
    6TRP      H 5324   7.930   9.416   9.217
    6TRP     CA 5325   8.118   9.412   9.340
    6TRP     HA 5326   8.122   9.380   9.444
    6TRP     CB 5327   8.156   9.287   9.251
    6TRP    HB2 5328   8.136   9.313   9.147
    6TRP    HB3 5329   8.262   9.259   9.254
    6TRP     CG 5330   8.090   9.154   9.287
    6TRP    CD1 5331   7.978   9.103   9.228
    6TRP    HD1 5332   7.935   9.153   9.141
    6TRP    NE1 5333   7.929   8.985   9.289
    6TRP    HE1 5334   7.842   8.944   9.260
    6TRP    CE2 5335   8.000   8.967   9.403
    6TRP    CZ2 5336   7.993   8.874   9.508
    6TRP    HZ2 5337   7.907   8.809   9.516
    6TRP    CH2 5338   8.085   8.868   9.610
    6TRP    HH2 5339   8.064   8.797   9.688
    6TRP    CZ3 5340   8.191   8.959   9.622
    6TRP    HZ3 5341   8.259   8.959   9.705
    6TRP    CE3 5342   8.198   9.058   9.518
    6TRP    HE3 5343   8.280   9.129   9.518
    6TRP    CD2 5344   8.107   9.063   9.405
    6TRP      C 5345   8.217   9.520   9.327
    6TRP      O 5346   8.332   9.507   9.376
    7TRP      N 5347   8.178   9.632   9.262
    7TRP      H 5348   8.084   9.630   9.228
    7TRP     CA 5349   8.269   9.741   9.226
    7TRP     HA 5350   8.357   9.695   9.182
    7TRP     CB 5351   8.197   9.835   9.128
    7TRP    HB2 5352   8.153   9.918   9.182
    7TRP    HB3 5353   8.275   9.885   9.072
    7TRP     CG 5354   8.103   9.785   9.020
    7TRP    CD1 5355   8.011   9.859   8.952
    7TRP    HD1 5356   7.995   9.965   8.969
    7TRP    NE1 5357   7.938   9.790   8.860
    7TRP    HE1 5358   7.862   9.836   8.811
    7TRP    CE2 5359   7.988   9.660   8.855
    7TRP    CZ2 5360   7.953   9.555   8.771
    7TRP    HZ2 5361   7.873   9.571   8.699
    7TRP    CH2 5362   8.013   9.430   8.788
    7TRP    HH2 5363   7.986   9.351   8.718
    7TRP    CZ3 5364   8.112   9.414   8.886
    7TRP    HZ3 5365   8.155   9.316   8.905
    7TRP    CE3 5366   8.158   9.530   8.957
    7TRP    HE3 5367   8.248   9.526   9.016
    7TRP    CD2 5368   8.092   9.656   8.951
    7TRP      C 5369   8.312   9.810   9.353
    7TRP      O 5370   8.229   9.824   9.442
    8PRO      N 5371   8.433   9.871   9.363
    8PRO     CD 5372   8.531   9.892   9.257
    8PRO    HD2 5373   8.485   9.940   9.170
    8PRO    HD3 5374   8.575   9.796   9.233
    8PRO     CG 5375   8.628   9.993   9.316
    8PRO    HG2 5376   8.603  10.093   9.281
    8PRO    HG3 5377   8.728   9.973   9.279
    8PRO     CB 5378   8.619   9.976   9.470
    8PRO    HB2 5379   8.631  10.073   9.518
    8PRO    HB3 5380   8.683   9.893   9.502
    8PRO     CA 5381   8.476   9.932   9.491
    8PRO     HA 5382   8.482   9.858   9.571
    8PRO      C 5383   8.392  10.050   9.536
    8PRO      O 5384   8.388  10.155   9.465
    9TRP      N 5385   8.326  10.031   9.653
    9TRP      H 5386   8.331   9.943   9.698
    9TRP     CA 5387   8.249  10.135   9.725
    9TRP     HA 5388   8.285  10.236   9.706
    9TRP     CB 5389   8.099  10.118   9.680
    9TRP    HB2 5390   8.080  10.012   9.693
    9TRP    HB3 5391   8.039  10.178   9.750
    9TRP     CG 5392   8.065  10.147   9.532
    9TRP    CD1 5393   8.013  10.068   9.434
    9TRP    HD1 5394   7.976   9.969   9.446
    9TRP    NE1 5395   8.002  10.134   9.312
    9TRP    HE1 5396   7.964  10.100   9.225
    9TRP    CE2 5397   8.065  10.258   9.317
    9TRP    CZ2 5398   8.085  10.365   9.228
    9TRP    HZ2 5399   8.052  10.357   9.126
    9TRP    CH2 5400   8.128  10.487   9.277
    9TRP    HH2 5401   8.132  10.566   9.204
    9TRP    CZ3 5402   8.162  10.500   9.413
    9TRP    HZ3 5403   8.199  10.597   9.442
    9TRP    CE3 5404   8.148  10.392   9.504
    9TRP    HE3 5405   8.164  10.409   9.609
    9TRP    CD2 5406   8.102  10.268   9.455
    9TRP      C 5407   8.260  10.113   9.877
    9TRP      O 5408   8.222  10.011   9.930
   10ARG      N 5409   8.309  10.214   9.947
   10ARG      H 5410   8.357  10.286   9.893
   10ARG     CA 5411   8.314  10.216  10.087
   10ARG     HA 5412   8.344  10.117  10.122
   10ARG     CB 5413   8.411  10.325  10.128
   10ARG    HB2 5414   8.378  10.422  10.088
   10ARG    HB3 5415   8.396  10.336  10.236
   10ARG     CG 5416   8.556  10.305  10.096
   10ARG    HG2 5417   8.580  10.210  10.147
   10ARG    HG3 5418   8.578  10.278   9.993
   10ARG     CD 5419   8.648  10.423  10.146
   10ARG    HD2 5420   8.753  10.395  10.139
   10ARG    HD3 5421   8.624  10.517  10.094
   10ARG     NE 5422   8.634  10.440  10.294
   10ARG     HE 5423   8.664  10.362  10.349
   10ARG     CZ 5424   8.569  10.544  10.352
   10ARG    NH1 5425   8.481  10.613  10.284
   10ARG   HH11 5426   8.438  10.584  10.197
   10ARG   HH12 5427   8.449  10.698  10.329
   10ARG    NH2 5428   8.594  10.577  10.477
   10ARG   HH21 5429   8.673  10.545  10.530
   10ARG   HH22 5430   8.538  10.652  10.515
   10ARG      C 5431   8.175  10.245  10.144
   10ARG      O 5432   8.098  10.325  10.088
   11ARG      N 5433   8.132  10.181  10.254
   11ARG      H 5434   8.198  10.115  10.293
   11ARG     CA 5435   8.007  10.197  10.330
   11ARG     HA 5436   7.991  10.306  10.325
   11ARG     CB 5437   7.882  10.126  10.261
   11ARG    HB2 5438   7.797  10.125  10.330
   11ARG    HB3 5439   7.855  10.177  10.169
   11ARG     CG 5440   7.909   9.976  10.232
   11ARG    HG2 5441   8.000   9.971  10.174
   11ARG    HG3 5442   7.932   9.923  10.325
   11ARG     CD 5443   7.794   9.906  10.144
   11ARG    HD2 5444   7.719   9.885  10.219
   11ARG    HD3 5445   7.763   9.974  10.065
   11ARG     NE 5446   7.844   9.776  10.092
   11ARG     HE 5447   7.872   9.699  10.152
   11ARG     CZ 5448   7.882   9.757   9.968
   11ARG    NH1 5449   7.892   9.841   9.868
   11ARG   HH11 5450   7.863   9.937   9.871
   11ARG   HH12 5451   7.946   9.813   9.788
   11ARG    NH2 5452   7.924   9.638   9.936
   11ARG   HH21 5453   7.943   9.575  10.012
   11ARG   HH22 5454   7.922   9.601   9.842
   11ARG      C 5455   8.030  10.161  10.475
   11ARG      O 5456   8.108  10.066  10.495
   12LYS      N 5457   7.954  10.215  10.570
   12LYS      H 5458   7.895  10.290  10.537
   12LYS     CA 5459   7.955  10.178  10.714
   12LYS     HA 5460   8.051  10.217  10.742
   12LYS     CB 5461   7.837  10.256  10.780
   12LYS    HB2 5462   7.823  10.355  10.738
   12LYS    HB3 5463   7.744  10.207  10.751
   12LYS     CG 5464   7.844  10.280  10.926
   12LYS    HG2 5465   7.863  10.188  10.980
   12LYS    HG3 5466   7.922  10.355  10.946
   12LYS     CD 5467   7.718  10.338  10.978
   12LYS    HD2 5468   7.701  10.436  10.935
   12LYS    HD3 5469   7.635  10.271  10.959
   12LYS     CE 5470   7.734  10.344  11.136
   12LYS    HE2 5471   7.761  10.245  11.173
   12LYS    HE3 5472   7.812  10.407  11.179
   12LYS     NZ 5473   7.606  10.380  11.203
   12LYS    HZ1 5474   7.583  10.478  11.201
   12LYS    HZ2 5475   7.526  10.328  11.173
   12LYS    HZ3 5476   7.624  10.364  11.302
   12LYS      C 5477   7.957  10.030  10.755
   12LYS      O 5478   7.887   9.951  10.697
   13NHE      N 5479   8.029  10.011  10.868
   13NHE    HN1 5480   8.086  10.084  10.911
   13NHE    HN2 5481   8.033   9.922  10.915
    1ILE      N 5482   6.805   5.766   9.091
    1ILE     H1 5483   6.804   5.862   9.121
    1ILE     H2 5484   6.869   5.744   9.014
    1ILE     H3 5485   6.850   5.726   9.172
    1ILE     CA 5486   6.680   5.690   9.078
    1ILE     HA 5487   6.705   5.585   9.082
    1ILE     CB 5488   6.580   5.728   9.195
    1ILE     HB 5489   6.620   5.731   9.296
    1ILE    CG2 5490   6.533   5.871   9.162
    1ILE   HG21 5491   6.439   5.871   9.108
    1ILE   HG22 5492   6.520   5.935   9.251
    1ILE   HG23 5493   6.604   5.923   9.099
    1ILE    CG1 5494   6.465   5.625   9.218
    1ILE   HG12 5495   6.503   5.523   9.212
    1ILE   HG13 5496   6.389   5.639   9.141
    1ILE    CD1 5497   6.397   5.640   9.355
    1ILE   HD11 5498   6.345   5.734   9.366
    1ILE   HD12 5499   6.312   5.572   9.357
    1ILE   HD13 5500   6.459   5.622   9.443
    1ILE      C 5501   6.623   5.701   8.938
    1ILE      O 5502   6.640   5.805   8.877
    2LEU      N 5503   6.559   5.595   8.889
    2LEU      H 5504   6.549   5.516   8.951
    2LEU     CA 5505   6.467   5.603   8.774
    2LEU     HA 5506   6.467   5.701   8.725
    2LEU     CB 5507   6.509   5.510   8.662
    2LEU    HB2 5508   6.464   5.412   8.685
    2LEU    HB3 5509   6.465   5.544   8.569
    2LEU     CG 5510   6.657   5.485   8.638
    2LEU     HG 5511   6.709   5.436   8.720
    2LEU    CD1 5512   6.672   5.374   8.526
    2LEU   HD11 5513   6.659   5.277   8.574
    2LEU   HD12 5514   6.597   5.389   8.449
    2LEU   HD13 5515   6.768   5.374   8.472
    2LEU    CD2 5516   6.728   5.606   8.592
    2LEU   HD21 5517   6.662   5.654   8.520
    2LEU   HD22 5518   6.729   5.677   8.675
    2LEU   HD23 5519   6.828   5.593   8.553
    2LEU      C 5520   6.320   5.575   8.812
    2LEU      O 5521   6.288   5.508   8.911
    3ARG      N 5522   6.231   5.642   8.741
    3ARG      H 5523   6.265   5.698   8.664
    3ARG     CA 5524   6.085   5.643   8.768
    3ARG     HA 5525   6.063   5.563   8.840
    3ARG     CB 5526   6.036   5.775   8.836
    3ARG    HB2 5527   5.937   5.754   8.875
    3ARG    HB3 5528   6.099   5.785   8.924
    3ARG     CG 5529   6.036   5.907   8.754
    3ARG    HG2 5530   6.133   5.930   8.710
    3ARG    HG3 5531   5.960   5.902   8.676
    3ARG     CD 5532   5.994   6.031   8.832
    3ARG    HD2 5533   5.954   6.103   8.760
    3ARG    HD3 5534   5.904   6.007   8.889
    3ARG     NE 5535   6.096   6.093   8.910
    3ARG     HE 5536   6.155   6.155   8.858
    3ARG     CZ 5537   6.109   6.088   9.043
    3ARG    NH1 5538   6.013   6.044   9.123
    3ARG   HH11 5539   5.941   5.982   9.089
    3ARG   HH12 5540   6.018   6.047   9.222
    3ARG    NH2 5541   6.223   6.140   9.094
    3ARG   HH21 5542   6.292   6.185   9.038
    3ARG   HH22 5543   6.229   6.145   9.196
    3ARG      C 5544   6.001   5.619   8.644
    3ARG      O 5545   6.046   5.636   8.531
    4TRP      N 5546   5.885   5.555   8.664
    4TRP      H 5547   5.849   5.545   8.758
    4TRP     CA 5548   5.799   5.505   8.554
    4TRP     HA 5549   5.825   5.557   8.460
    4TRP     CB 5550   5.832   5.351   8.536
    4TRP    HB2 5551   5.840   5.302   8.633
    4TRP    HB3 5552   5.763   5.303   8.466
    4TRP     CG 5553   5.966   5.323   8.476
    4TRP    CD1 5554   5.996   5.332   8.346
    4TRP    HD1 5555   5.929   5.362   8.265
    4TRP    NE1 5556   6.123   5.287   8.326
    4TRP    HE1 5557   6.167   5.291   8.234
    4TRP    CE2 5558   6.183   5.250   8.442
    4TRP    CZ2 5559   6.309   5.202   8.480
    4TRP    HZ2 5560   6.391   5.178   8.414
    4TRP    CH2 5561   6.337   5.186   8.615
    4TRP    HH2 5562   6.430   5.146   8.651
    4TRP    CZ3 5563   6.252   5.235   8.713
    4TRP    HZ3 5564   6.280   5.219   8.817
    4TRP    CE3 5565   6.122   5.285   8.683
    4TRP    HE3 5566   6.054   5.320   8.761
    4TRP    CD2 5567   6.084   5.289   8.545
    4TRP      C 5568   5.641   5.525   8.588
    4TRP      O 5569   5.608   5.553   8.703
    5PRO      N 5570   5.552   5.501   8.493
    5PRO     CD 5571   5.588   5.509   8.354
    5PRO    HD2 5572   5.604   5.411   8.311
    5PRO    HD3 5573   5.675   5.573   8.330
    5PRO     CG 5574   5.462   5.572   8.287
    5PRO    HG2 5575   5.454   5.548   8.180
    5PRO    HG3 5576   5.469   5.681   8.295
    5PRO     CB 5577   5.351   5.508   8.366
    5PRO    HB2 5578   5.337   5.403   8.338
    5PRO    HB3 5579   5.265   5.574   8.357
    5PRO     CA 5580   5.408   5.509   8.507
    5PRO     HA 5581   5.385   5.606   8.551
    5PRO      C 5582   5.345   5.399   8.595
    5PRO      O 5583   5.422   5.300   8.612
    6TRP      N 5584   5.218   5.393   8.632
    6TRP      H 5585   5.174   5.483   8.618
    6TRP     CA 5586   5.149   5.276   8.701
    6TRP     HA 5587   5.215   5.233   8.777
    6TRP     CB 5588   5.025   5.338   8.778
    6TRP    HB2 5589   4.967   5.397   8.707
    6TRP    HB3 5590   4.955   5.264   8.819
    6TRP     CG 5591   5.055   5.421   8.903
    6TRP    CD1 5592   5.066   5.557   8.907
    6TRP    HD1 5593   5.042   5.615   8.818
    6TRP    NE1 5594   5.108   5.608   9.032
    6TRP    HE1 5595   5.129   5.706   9.043
    6TRP    CE2 5596   5.144   5.501   9.108
    6TRP    CZ2 5597   5.201   5.489   9.236
    6TRP    HZ2 5598   5.241   5.576   9.285
    6TRP    CH2 5599   5.219   5.368   9.299
    6TRP    HH2 5600   5.269   5.371   9.394
    6TRP    CZ3 5601   5.188   5.246   9.237
    6TRP    HZ3 5602   5.207   5.150   9.284
    6TRP    CE3 5603   5.134   5.256   9.105
    6TRP    HE3 5604   5.103   5.165   9.053
    6TRP    CD2 5605   5.107   5.382   9.038
    6TRP      C 5606   5.109   5.166   8.614
    6TRP      O 5607   5.071   5.057   8.662
    7TRP      N 5608   5.115   5.187   8.480
    7TRP      H 5609   5.147   5.279   8.455
    7TRP     CA 5610   5.063   5.094   8.380
    7TRP     HA 5611   4.964   5.065   8.413
    7TRP     CB 5612   5.061   5.164   8.244
    7TRP    HB2 5613   5.151   5.141   8.188
    7TRP    HB3 5614   4.985   5.114   8.185
    7TRP     CG 5615   5.025   5.311   8.227
    7TRP    CD1 5616   5.051   5.390   8.119
    7TRP    HD1 5617   5.102   5.354   8.031
    7TRP    NE1 5618   5.008   5.518   8.130
    7TRP    HE1 5619   5.031   5.585   8.057
    7TRP    CE2 5620   4.937   5.530   8.249
    7TRP    CZ2 5621   4.868   5.638   8.300
    7TRP    HZ2 5622   4.868   5.732   8.244
    7TRP    CH2 5623   4.809   5.630   8.427
    7TRP    HH2 5624   4.752   5.715   8.462
    7TRP    CZ3 5625   4.817   5.509   8.498
    7TRP    HZ3 5626   4.777   5.503   8.599
    7TRP    CE3 5627   4.873   5.394   8.433
    7TRP    HE3 5628   4.861   5.296   8.475
    7TRP    CD2 5629   4.944   5.402   8.310
    7TRP      C 5630   5.150   4.971   8.381
    7TRP      O 5631   5.272   4.985   8.397
    8PRO      N 5632   5.101   4.849   8.348
    8PRO     CD 5633   4.969   4.818   8.295
    8PRO    HD2 5634   4.945   4.880   8.208
    8PRO    HD3 5635   4.897   4.832   8.377
    8PRO     CG 5636   4.980   4.675   8.245
    8PRO    HG2 5637   4.997   4.675   8.138
    8PRO    HG3 5638   4.886   4.623   8.260
    8PRO     CB 5639   5.095   4.611   8.327
    8PRO    HB2 5640   5.150   4.541   8.265
    8PRO    HB3 5641   5.056   4.575   8.424
    8PRO     CA 5642   5.186   4.728   8.357
    8PRO     HA 5643   5.222   4.710   8.458
    8PRO      C 5644   5.304   4.727   8.260
    8PRO      O 5645   5.283   4.726   8.135
    9TRP      N 5646   5.425   4.726   8.320
    9TRP      H 5647   5.431   4.732   8.419
    9TRP     CA 5648   5.555   4.712   8.250
    9TRP     HA 5649   5.546   4.655   8.157
    9TRP     CB 5650   5.609   4.857   8.224
    9TRP    HB2 5651   5.600   4.904   8.321
    9TRP    HB3 5652   5.713   4.846   8.194
    9TRP     CG 5653   5.528   4.947   8.128
    9TRP    CD1 5654   5.465   5.067   8.148
    9TRP    HD1 5655   5.468   5.126   8.236
    9TRP    NE1 5656   5.399   5.112   8.034
    9TRP    HE1 5657   5.348   5.199   8.020
    9TRP    CE2 5658   5.399   5.015   7.935
    9TRP    CZ2 5659   5.350   5.004   7.803
    9TRP    HZ2 5660   5.293   5.084   7.761
    9TRP    CH2 5661   5.394   4.901   7.722
    9TRP    HH2 5662   5.360   4.905   7.620
    9TRP    CZ3 5663   5.478   4.801   7.776
    9TRP    HZ3 5664   5.504   4.722   7.708
    9TRP    CE3 5665   5.524   4.807   7.910
    9TRP    HE3 5666   5.596   4.734   7.944
    9TRP    CD2 5667   5.481   4.912   7.993
    9TRP      C 5668   5.654   4.634   8.338
    9TRP      O 5669   5.688   4.675   8.446
   10ARG      N 5670   5.704   4.523   8.286
   10ARG      H 5671   5.655   4.486   8.205
   10ARG     CA 5672   5.805   4.448   8.348
   10ARG     HA 5673   5.786   4.444   8.454
   10ARG     CB 5674   5.807   4.311   8.282
   10ARG    HB2 5675   5.824   4.321   8.174
   10ARG    HB3 5676   5.899   4.264   8.318
   10ARG     CG 5677   5.688   4.222   8.305
   10ARG    HG2 5678   5.685   4.213   8.415
   10ARG    HG3 5679   5.592   4.267   8.286
   10ARG     CD 5680   5.702   4.081   8.235
   10ARG    HD2 5681   5.625   4.013   8.271
   10ARG    HD3 5682   5.704   4.091   8.126
   10ARG     NE 5683   5.826   4.011   8.283
   10ARG     HE 5684   5.826   3.988   8.381
   10ARG     CZ 5685   5.937   3.994   8.208
   10ARG    NH1 5686   5.959   4.071   8.105
   10ARG   HH11 5687   5.913   4.159   8.087
   10ARG   HH12 5688   6.036   4.042   8.046
   10ARG    NH2 5689   6.023   3.898   8.238
   10ARG   HH21 5690   6.006   3.822   8.301
   10ARG   HH22 5691   6.106   3.895   8.181
   10ARG      C 5692   5.940   4.517   8.328
   10ARG      O 5693   5.969   4.575   8.222
   11ARG      N 5694   6.031   4.518   8.427
   11ARG      H 5695   6.001   4.472   8.512
   11ARG     CA 5696   6.168   4.571   8.430
   11ARG     HA 5697   6.204   4.546   8.329
   11ARG     CB 5698   6.174   4.731   8.446
   11ARG    HB2 5699   6.277   4.762   8.466
   11ARG    HB3 5700   6.136   4.779   8.355
   11ARG     CG 5701   6.094   4.780   8.569
   11ARG    HG2 5702   5.994   4.740   8.560
   11ARG    HG3 5703   6.134   4.734   8.660
   11ARG     CD 5704   6.080   4.940   8.577
   11ARG    HD2 5705   6.175   4.968   8.619
   11ARG    HD3 5706   6.060   4.979   8.477
   11ARG     NE 5707   5.975   4.975   8.676
   11ARG     HE 5708   5.981   4.952   8.774
   11ARG     CZ 5709   5.855   5.015   8.643
   11ARG    NH1 5710   5.797   5.027   8.525
   11ARG   HH11 5711   5.845   5.012   8.437
   11ARG   HH12 5712   5.697   5.035   8.522
   11ARG    NH2 5713   5.772   5.043   8.740
   11ARG   HH21 5714   5.800   5.013   8.832
   11ARG   HH22 5715   5.693   5.105   8.730
   11ARG      C 5716   6.252   4.494   8.529
   11ARG      O 5717   6.193   4.459   8.633
   12LYS      N 5718   6.383   4.485   8.513
   12LYS      H 5719   6.416   4.520   8.424
   12LYS     CA 5720   6.479   4.426   8.610
   12LYS     HA 5721   6.452   4.322   8.601
   12LYS     CB 5722   6.621   4.456   8.554
   12LYS    HB2 5723   6.626   4.450   8.446
   12LYS    HB3 5724   6.644   4.560   8.572
   12LYS     CG 5725   6.732   4.367   8.598
   12LYS    HG2 5726   6.735   4.360   8.707
   12LYS    HG3 5727   6.720   4.268   8.552
   12LYS     CD 5728   6.864   4.417   8.554
   12LYS    HD2 5729   6.870   4.416   8.445
   12LYS    HD3 5730   6.882   4.517   8.593
   12LYS     CE 5731   6.973   4.323   8.621
   12LYS    HE2 5732   6.957   4.320   8.728
   12LYS    HE3 5733   6.974   4.217   8.594
   12LYS     NZ 5734   7.111   4.375   8.600
   12LYS    HZ1 5735   7.151   4.358   8.510
   12LYS    HZ2 5736   7.123   4.473   8.623
   12LYS    HZ3 5737   7.169   4.318   8.661
   12LYS      C 5738   6.467   4.458   8.759
   12LYS      O 5739   6.445   4.572   8.794
   13NHE      N 5740   6.501   4.352   8.836
   13NHE    HN1 5741   6.519   4.259   8.799
   13NHE    HN2 5742   6.509   4.359   8.937
    1ILE      N 5743   3.868  10.744   7.629
    1ILE     H1 5744   3.863  10.721   7.531
    1ILE     H2 5745   3.956  10.722   7.675
    1ILE     H3 5746   3.870  10.845   7.619
    1ILE     CA 5747   3.754  10.717   7.718
    1ILE     HA 5748   3.765  10.781   7.804
    1ILE     CB 5749   3.617  10.747   7.643
    1ILE     HB 5750   3.611  10.841   7.588
    1ILE    CG2 5751   3.603  10.634   7.539
    1ILE   HG21 5752   3.542  10.552   7.577
    1ILE   HG22 5753   3.560  10.666   7.444
    1ILE   HG23 5754   3.699  10.591   7.514
    1ILE    CG1 5755   3.495  10.766   7.737
    1ILE   HG12 5756   3.521  10.826   7.824
    1ILE   HG13 5757   3.461  10.668   7.771
    1ILE    CD1 5758   3.376  10.836   7.669
    1ILE   HD11 5759   3.334  10.778   7.588
    1ILE   HD12 5760   3.293  10.834   7.739
    1ILE   HD13 5761   3.392  10.938   7.635
    1ILE      C 5762   3.765  10.580   7.781
    1ILE      O 5763   3.816  10.490   7.716
    2LEU      N 5764   3.718  10.566   7.905
    2LEU      H 5765   3.675  10.648   7.946
    2LEU     CA 5766   3.686  10.435   7.964
    2LEU     HA 5767   3.717  10.350   7.902
    2LEU     CB 5768   3.762  10.411   8.093
    2LEU    HB2 5769   3.703  10.456   8.173
    2LEU    HB3 5770   3.767  10.304   8.112
    2LEU     CG 5771   3.904  10.467   8.106
    2LEU     HG 5772   3.911  10.576   8.103
    2LEU    CD1 5773   3.955  10.439   8.253
    2LEU   HD11 5774   3.913  10.517   8.317
    2LEU   HD12 5775   3.922  10.341   8.286
    2LEU   HD13 5776   4.064  10.438   8.266
    2LEU    CD2 5777   3.999  10.403   8.012
    2LEU   HD21 5778   3.975  10.296   8.013
    2LEU   HD22 5779   3.971  10.433   7.911
    2LEU   HD23 5780   4.104  10.421   8.029
    2LEU      C 5781   3.535  10.415   7.990
    2LEU      O 5782   3.457  10.510   8.006
    3ARG      N 5783   3.492  10.291   7.977
    3ARG      H 5784   3.561  10.219   7.960
    3ARG     CA 5785   3.349  10.250   7.983
    3ARG     HA 5786   3.291  10.334   8.021
    3ARG     CB 5787   3.289  10.219   7.842
    3ARG    HB2 5788   3.181  10.217   7.855
    3ARG    HB3 5789   3.309  10.309   7.783
    3ARG     CG 5790   3.337  10.092   7.765
    3ARG    HG2 5791   3.445  10.089   7.753
    3ARG    HG3 5792   3.302  10.003   7.816
    3ARG     CD 5793   3.277  10.077   7.626
    3ARG    HD2 5794   3.280   9.970   7.602
    3ARG    HD3 5795   3.170  10.094   7.632
    3ARG     NE 5796   3.341  10.150   7.522
    3ARG     HE 5797   3.422  10.105   7.484
    3ARG     CZ 5798   3.294  10.260   7.462
    3ARG    NH1 5799   3.170  10.302   7.476
    3ARG   HH11 5800   3.114  10.276   7.555
    3ARG   HH12 5801   3.132  10.379   7.426
    3ARG    NH2 5802   3.380  10.323   7.377
    3ARG   HH21 5803   3.471  10.287   7.355
    3ARG   HH22 5804   3.342  10.401   7.324
    3ARG      C 5805   3.325  10.131   8.073
    3ARG      O 5806   3.416  10.055   8.105
    4TRP      N 5807   3.207  10.128   8.134
    4TRP      H 5808   3.133  10.190   8.104
    4TRP     CA 5809   3.172  10.030   8.241
    4TRP     HA 5810   3.241   9.944   8.237
    4TRP     CB 5811   3.195  10.104   8.380
    4TRP    HB2 5812   3.156  10.206   8.376
    4TRP    HB3 5813   3.158  10.044   8.463
    4TRP     CG 5814   3.338  10.127   8.414
    4TRP    CD1 5815   3.422  10.035   8.464
    4TRP    HD1 5816   3.400   9.931   8.485
    4TRP    NE1 5817   3.540  10.095   8.496
    4TRP    HE1 5818   3.620  10.041   8.529
    4TRP    CE2 5819   3.540  10.228   8.466
    4TRP    CZ2 5820   3.633  10.333   8.473
    4TRP    HZ2 5821   3.733  10.328   8.514
    4TRP    CH2 5822   3.598  10.457   8.421
    4TRP    HH2 5823   3.662  10.542   8.426
    4TRP    CZ3 5824   3.484  10.473   8.342
    4TRP    HZ3 5825   3.463  10.573   8.305
    4TRP    CE3 5826   3.385  10.371   8.330
    4TRP    HE3 5827   3.294  10.386   8.272
    4TRP    CD2 5828   3.411  10.247   8.396
    4TRP      C 5829   3.018   9.980   8.229
    4TRP      O 5830   2.941  10.042   8.155
    5PRO      N 5831   2.977   9.881   8.306
    5PRO     CD 5832   3.070   9.785   8.359
    5PRO    HD2 5833   3.093   9.806   8.463
    5PRO    HD3 5834   3.164   9.773   8.303
    5PRO     CG 5835   2.991   9.651   8.353
    5PRO    HG2 5836   3.027   9.577   8.425
    5PRO    HG3 5837   3.004   9.608   8.253
    5PRO     CB 5838   2.851   9.696   8.386
    5PRO    HB2 5839   2.841   9.719   8.493
    5PRO    HB3 5840   2.785   9.621   8.344
    5PRO     CA 5841   2.842   9.828   8.312
    5PRO     HA 5842   2.811   9.806   8.210
    5PRO      C 5843   2.737   9.922   8.375
    5PRO      O 5844   2.790  10.014   8.443
    6TRP      N 5845   2.607   9.899   8.380
    6TRP      H 5846   2.582   9.827   8.313
    6TRP     CA 5847   2.504   9.979   8.458
    6TRP     HA 5848   2.526  10.086   8.452
    6TRP     CB 5849   2.365   9.957   8.385
    6TRP    HB2 5850   2.350   9.850   8.375
    6TRP    HB3 5851   2.278   9.994   8.439
    6TRP     CG 5852   2.346  10.026   8.250
    6TRP    CD1 5853   2.367   9.969   8.128
    6TRP    HD1 5854   2.389   9.863   8.122
    6TRP    NE1 5855   2.356  10.059   8.019
    6TRP    HE1 5856   2.379  10.030   7.926
    6TRP    CE2 5857   2.346  10.184   8.072
    6TRP    CZ2 5858   2.340  10.312   8.015
    6TRP    HZ2 5859   2.363  10.326   7.911
    6TRP    CH2 5860   2.317  10.426   8.089
    6TRP    HH2 5861   2.322  10.519   8.035
    6TRP    CZ3 5862   2.304  10.424   8.229
    6TRP    HZ3 5863   2.293  10.514   8.288
    6TRP    CE3 5864   2.314  10.294   8.289
    6TRP    HE3 5865   2.300  10.285   8.396
    6TRP    CD2 5866   2.330  10.171   8.214
    6TRP      C 5867   2.495   9.948   8.601
    6TRP      O 5868   2.430  10.021   8.679
    7TRP      N 5869   2.560   9.838   8.644
    7TRP      H 5870   2.609   9.787   8.572
    7TRP     CA 5871   2.548   9.782   8.780
    7TRP     HA 5872   2.442   9.780   8.803
    7TRP     CB 5873   2.612   9.643   8.782
    7TRP    HB2 5874   2.714   9.649   8.816
    7TRP    HB3 5875   2.564   9.590   8.864
    7TRP     CG 5876   2.600   9.545   8.667
    7TRP    CD1 5877   2.678   9.435   8.645
    7TRP    HD1 5878   2.759   9.406   8.711
    7TRP    NE1 5879   2.646   9.364   8.533
    7TRP    HE1 5880   2.705   9.286   8.506
    7TRP    CE2 5881   2.533   9.421   8.476
    7TRP    CZ2 5882   2.459   9.379   8.367
    7TRP    HZ2 5883   2.492   9.291   8.312
    7TRP    CH2 5884   2.350   9.456   8.323
    7TRP    HH2 5885   2.292   9.419   8.239
    7TRP    CZ3 5886   2.315   9.571   8.394
    7TRP    HZ3 5887   2.236   9.636   8.358
    7TRP    CE3 5888   2.383   9.600   8.517
    7TRP    HE3 5889   2.345   9.674   8.585
    7TRP    CD2 5890   2.501   9.531   8.559
    7TRP      C 5891   2.614   9.879   8.875
    7TRP      O 5892   2.717   9.935   8.839
    8PRO      N 5893   2.572   9.891   9.004
    8PRO     CD 5894   2.473   9.809   9.073
    8PRO    HD2 5895   2.496   9.703   9.063
    8PRO    HD3 5896   2.375   9.835   9.032
    8PRO     CG 5897   2.492   9.844   9.220
    8PRO    HG2 5898   2.554   9.768   9.267
    8PRO    HG3 5899   2.396   9.840   9.270
    8PRO     CB 5900   2.553   9.986   9.222
    8PRO    HB2 5901   2.623   9.994   9.305
    8PRO    HB3 5902   2.473  10.061   9.213
    8PRO     CA 5903   2.634   9.991   9.093
    8PRO     HA 5904   2.620  10.093   9.057
    8PRO      C 5905   2.780   9.967   9.124
    8PRO      O 5906   2.815   9.862   9.186
    9TRP      N 5907   2.863  10.064   9.080
    9TRP      H 5908   2.826  10.140   9.028
    9TRP     CA 5909   3.009  10.071   9.109
    9TRP     HA 5910   3.036  10.023   9.203
    9TRP     CB 5911   3.082  10.005   8.987
    9TRP    HB2 5912   3.037  10.054   8.901
    9TRP    HB3 5913   3.188  10.032   8.996
    9TRP     CG 5914   3.059   9.854   8.964
    9TRP    CD1 5915   3.006   9.786   8.859
    9TRP    HD1 5916   2.977   9.827   8.765
    9TRP    NE1 5917   3.001   9.648   8.881
    9TRP    HE1 5918   2.969   9.576   8.818
    9TRP    CE2 5919   3.033   9.619   9.012
    9TRP    CZ2 5920   3.046   9.502   9.090
    9TRP    HZ2 5921   3.020   9.407   9.047
    9TRP    CH2 5922   3.110   9.507   9.212
    9TRP    HH2 5923   3.123   9.412   9.261
    9TRP    CZ3 5924   3.152   9.631   9.263
    9TRP    HZ3 5925   3.197   9.628   9.361
    9TRP    CE3 5926   3.136   9.752   9.189
    9TRP    HE3 5927   3.180   9.843   9.227
    9TRP    CD2 5928   3.073   9.747   9.064
    9TRP      C 5929   3.053  10.218   9.122
    9TRP      O 5930   3.040  10.297   9.032
   10ARG      N 5931   3.109  10.253   9.237
   10ARG      H 5932   3.096  10.187   9.314
   10ARG     CA 5933   3.166  10.379   9.261
   10ARG     HA 5934   3.102  10.455   9.217
   10ARG     CB 5935   3.183  10.394   9.411
   10ARG    HB2 5936   3.246  10.313   9.450
   10ARG    HB3 5937   3.246  10.483   9.422
   10ARG     CG 5938   3.058  10.405   9.494
   10ARG    HG2 5939   3.007  10.492   9.451
   10ARG    HG3 5940   2.984  10.327   9.476
   10ARG     CD 5941   3.087  10.424   9.648
   10ARG    HD2 5942   2.997  10.451   9.700
   10ARG    HD3 5943   3.138  10.335   9.690
   10ARG     NE 5944   3.170  10.546   9.670
   10ARG     HE 5945   3.126  10.633   9.643
   10ARG     CZ 5946   3.301  10.543   9.705
   10ARG    NH1 5947   3.373  10.436   9.683
   10ARG   HH11 5948   3.348  10.360   9.621
   10ARG   HH12 5949   3.464  10.437   9.726
   10ARG    NH2 5950   3.357  10.648   9.763
   10ARG   HH21 5951   3.307  10.725   9.802
   10ARG   HH22 5952   3.456  10.640   9.781
   10ARG      C 5953   3.302  10.387   9.192
   10ARG      O 5954   3.379  10.290   9.187
   11ARG      N 5955   3.341  10.502   9.132
   11ARG      H 5956   3.273  10.576   9.137
   11ARG     CA 5957   3.468  10.536   9.066
   11ARG     HA 5958   3.541  10.486   9.131
   11ARG     CB 5959   3.481  10.474   8.919
   11ARG    HB2 5960   3.568  10.519   8.868
   11ARG    HB3 5961   3.491  10.366   8.924
   11ARG     CG 5962   3.361  10.512   8.829
   11ARG    HG2 5963   3.272  10.483   8.881
   11ARG    HG3 5964   3.354  10.621   8.821
   11ARG     CD 5965   3.361  10.436   8.687
   11ARG    HD2 5966   3.430  10.495   8.630
   11ARG    HD3 5967   3.389  10.332   8.703
   11ARG     NE 5968   3.227  10.452   8.624
   11ARG     HE 5969   3.188  10.541   8.597
   11ARG     CZ 5970   3.137  10.356   8.620
   11ARG    NH1 5971   3.137  10.236   8.673
   11ARG   HH11 5972   3.216  10.195   8.721
   11ARG   HH12 5973   3.050  10.187   8.680
   11ARG    NH2 5974   3.024  10.383   8.561
   11ARG   HH21 5975   3.006  10.480   8.541
   11ARG   HH22 5976   2.963  10.313   8.522
   11ARG      C 5977   3.493  10.685   9.076
   11ARG      O 5978   3.391  10.757   9.066
   12LYS      N 5979   3.617  10.732   9.074
   12LYS      H 5980   3.687  10.660   9.081
   12LYS     CA 5981   3.655  10.876   9.067
   12LYS     HA 5982   3.625  10.907   9.166
   12LYS     CB 5983   3.810  10.878   9.049
   12LYS    HB2 5984   3.860  10.799   9.103
   12LYS    HB3 5985   3.832  10.852   8.946
   12LYS     CG 5986   3.882  11.001   9.091
   12LYS    HG2 5987   3.837  11.089   9.046
   12LYS    HG3 5988   3.881  11.007   9.200
   12LYS     CD 5989   4.024  10.998   9.051
   12LYS    HD2 5990   4.076  10.918   9.102
   12LYS    HD3 5991   4.033  10.989   8.943
   12LYS     CE 5992   4.085  11.141   9.087
   12LYS    HE2 5993   4.023  11.218   9.041
   12LYS    HE3 5994   4.087  11.171   9.192
   12LYS     NZ 5995   4.222  11.158   9.032
   12LYS    HZ1 5996   4.295  11.113   9.085
   12LYS    HZ2 5997   4.232  11.134   8.935
   12LYS    HZ3 5998   4.242  11.257   9.047
   12LYS      C 5999   3.583  10.970   8.971
   12LYS      O 6000   3.559  10.933   8.859
   13NHE      N 6001   3.571  11.095   9.023
   13NHE    HN1 6002   3.594  11.117   9.120
   13NHE    HN2 6003   3.535  11.172   8.969
    1ILE      N 6004   5.293   9.628   3.138
    1ILE     H1 6005   5.351   9.597   3.215
    1ILE     H2 6006   5.223   9.699   3.160
    1ILE     H3 6007   5.364   9.678   3.087
    1ILE     CA 6008   5.240   9.531   3.041
    1ILE     HA 6009   5.215   9.586   2.951
    1ILE     CB 6010   5.348   9.419   3.010
    1ILE     HB 6011   5.450   9.452   2.990
    1ILE    CG2 6012   5.354   9.333   3.138
    1ILE   HG21 6013   5.289   9.246   3.132
    1ILE   HG22 6014   5.455   9.298   3.164
    1ILE   HG23 6015   5.320   9.389   3.225
    1ILE    CG1 6016   5.322   9.339   2.880
    1ILE   HG12 6017   5.292   9.405   2.798
    1ILE   HG13 6018   5.244   9.266   2.897
    1ILE    CD1 6019   5.447   9.263   2.829
    1ILE   HD11 6020   5.479   9.185   2.897
    1ILE   HD12 6021   5.415   9.202   2.744
    1ILE   HD13 6022   5.533   9.323   2.800
    1ILE      C 6023   5.104   9.480   3.082
    1ILE      O 6024   5.080   9.468   3.201
    2LEU      N 6025   5.016   9.453   2.985
    2LEU      H 6026   5.050   9.464   2.891
    2LEU     CA 6027   4.898   9.368   3.006
    2LEU     HA 6028   4.881   9.342   3.111
    2LEU     CB 6029   4.770   9.441   2.969
    2LEU    HB2 6030   4.756   9.426   2.862
    2LEU    HB3 6031   4.686   9.393   3.020
    2LEU     CG 6032   4.761   9.591   2.994
    2LEU     HG 6033   4.830   9.651   2.936
    2LEU    CD1 6034   4.623   9.643   2.934
    2LEU   HD11 6035   4.637   9.656   2.827
    2LEU   HD12 6036   4.544   9.570   2.954
    2LEU   HD13 6037   4.585   9.737   2.977
    2LEU    CD2 6038   4.763   9.625   3.138
    2LEU   HD21 6039   4.700   9.551   3.188
    2LEU   HD22 6040   4.863   9.601   3.175
    2LEU   HD23 6041   4.736   9.726   3.165
    2LEU      C 6042   4.904   9.234   2.930
    2LEU      O 6043   4.973   9.218   2.828
    3ARG      N 6044   4.844   9.133   2.990
    3ARG      H 6045   4.794   9.152   3.075
    3ARG     CA 6046   4.850   8.992   2.944
    3ARG     HA 6047   4.891   8.991   2.842
    3ARG     CB 6048   4.947   8.903   3.028
    3ARG    HB2 6049   4.964   8.813   2.970
    3ARG    HB3 6050   5.043   8.956   3.025
    3ARG     CG 6051   4.910   8.868   3.175
    3ARG    HG2 6052   4.889   8.956   3.235
    3ARG    HG3 6053   4.824   8.801   3.175
    3ARG     CD 6054   5.016   8.788   3.250
    3ARG    HD2 6055   4.964   8.732   3.329
    3ARG    HD3 6056   5.050   8.706   3.186
    3ARG     NE 6057   5.122   8.864   3.308
    3ARG     HE 6058   5.100   8.903   3.397
    3ARG     CZ 6059   5.248   8.871   3.262
    3ARG    NH1 6060   5.296   8.788   3.171
    3ARG   HH11 6061   5.236   8.740   3.107
    3ARG   HH12 6062   5.391   8.787   3.142
    3ARG    NH2 6063   5.328   8.962   3.323
    3ARG   HH21 6064   5.299   9.017   3.401
    3ARG   HH22 6065   5.426   8.961   3.295
    3ARG      C 6066   4.714   8.925   2.941
    3ARG      O 6067   4.620   8.968   3.005
    4TRP      N 6068   4.698   8.832   2.846
    4TRP      H 6069   4.778   8.796   2.797
    4TRP     CA 6070   4.566   8.770   2.815
    4TRP     HA 6071   4.498   8.784   2.899
    4TRP     CB 6072   4.508   8.847   2.689
    4TRP    HB2 6073   4.585   8.865   2.615
    4TRP    HB3 6074   4.418   8.799   2.651
    4TRP     CG 6075   4.462   8.987   2.719
    4TRP    CD1 6076   4.345   9.019   2.778
    4TRP    HD1 6077   4.269   8.950   2.814
    4TRP    NE1 6078   4.331   9.154   2.777
    4TRP    HE1 6079   4.252   9.199   2.823
    4TRP    CE2 6080   4.438   9.217   2.720
    4TRP    CZ2 6081   4.476   9.349   2.698
    4TRP    HZ2 6082   4.418   9.438   2.720
    4TRP    CH2 6083   4.603   9.374   2.646
    4TRP    HH2 6084   4.638   9.473   2.623
    4TRP    CZ3 6085   4.699   9.274   2.636
    4TRP    HZ3 6086   4.795   9.301   2.594
    4TRP    CE3 6087   4.667   9.137   2.657
    4TRP    HE3 6088   4.741   9.057   2.645
    4TRP    CD2 6089   4.533   9.105   2.696
    4TRP      C 6090   4.582   8.612   2.779
    4TRP      O 6091   4.695   8.567   2.758
    5PRO      N 6092   4.473   8.538   2.765
    5PRO     CD 6093   4.349   8.577   2.828
    5PRO    HD2 6094   4.281   8.623   2.758
    5PRO    HD3 6095   4.359   8.642   2.917
    5PRO     CG 6096   4.288   8.441   2.874
    5PRO    HG2 6097   4.179   8.446   2.885
    5PRO    HG3 6098   4.329   8.415   2.972
    5PRO     CB 6099   4.328   8.350   2.761
    5PRO    HB2 6100   4.268   8.369   2.671
    5PRO    HB3 6101   4.327   8.250   2.801
    5PRO     CA 6102   4.469   8.397   2.730
    5PRO     HA 6103   4.536   8.345   2.797
    5PRO      C 6104   4.509   8.366   2.585
    5PRO      O 6105   4.506   8.468   2.510
    6TRP      N 6106   4.524   8.245   2.534
    6TRP      H 6107   4.533   8.177   2.608
    6TRP     CA 6108   4.545   8.210   2.387
    6TRP     HA 6109   4.612   8.282   2.340
    6TRP     CB 6110   4.618   8.070   2.385
    6TRP    HB2 6111   4.561   8.001   2.446
    6TRP    HB3 6112   4.625   8.023   2.286
    6TRP     CG 6113   4.766   8.068   2.427
    6TRP    CD1 6114   4.812   8.038   2.551
    6TRP    HD1 6115   4.742   8.002   2.627
    6TRP    NE1 6116   4.952   8.057   2.568
    6TRP    HE1 6117   4.994   8.048   2.658
    6TRP    CE2 6118   4.996   8.120   2.455
    6TRP    CZ2 6119   5.121   8.172   2.417
    6TRP    HZ2 6120   5.199   8.182   2.490
    6TRP    CH2 6121   5.146   8.221   2.291
    6TRP    HH2 6122   5.244   8.264   2.276
    6TRP    CZ3 6123   5.047   8.230   2.192
    6TRP    HZ3 6124   5.064   8.275   2.096
    6TRP    CE3 6125   4.917   8.182   2.231
    6TRP    HE3 6126   4.837   8.182   2.158
    6TRP    CD2 6127   4.888   8.122   2.360
    6TRP      C 6128   4.424   8.208   2.305
    6TRP      O 6129   4.431   8.202   2.180
    7TRP      N 6130   4.305   8.215   2.370
    7TRP      H 6131   4.313   8.219   2.470
    7TRP     CA 6132   4.174   8.197   2.305
    7TRP     HA 6133   4.183   8.109   2.242
    7TRP     CB 6134   4.067   8.181   2.414
    7TRP    HB2 6135   4.021   8.276   2.434
    7TRP    HB3 6136   3.986   8.126   2.367
    7TRP     CG 6137   4.091   8.104   2.542
    7TRP    CD1 6138   4.017   8.111   2.656
    7TRP    HD1 6139   3.930   8.174   2.667
    7TRP    NE1 6140   4.060   8.031   2.758
    7TRP    HE1 6141   4.015   8.037   2.849
    7TRP    CE2 6142   4.166   7.955   2.711
    7TRP    CZ2 6143   4.237   7.854   2.774
    7TRP    HZ2 6144   4.212   7.829   2.877
    7TRP    CH2 6145   4.345   7.794   2.708
    7TRP    HH2 6146   4.397   7.713   2.759
    7TRP    CZ3 6147   4.377   7.834   2.578
    7TRP    HZ3 6148   4.465   7.793   2.528
    7TRP    CE3 6149   4.289   7.925   2.510
    7TRP    HE3 6150   4.297   7.940   2.404
    7TRP    CD2 6151   4.185   7.996   2.576
    7TRP      C 6152   4.151   8.316   2.216
    7TRP      O 6153   4.187   8.427   2.256
    8PRO      N 6154   4.075   8.307   2.103
    8PRO     CD 6155   3.998   8.192   2.058
    8PRO    HD2 6156   3.931   8.156   2.137
    8PRO    HD3 6157   4.069   8.116   2.025
    8PRO     CG 6158   3.909   8.247   1.948
    8PRO    HG2 6159   3.810   8.269   1.989
    8PRO    HG3 6160   3.894   8.172   1.871
    8PRO     CB 6161   3.984   8.372   1.893
    8PRO    HB2 6162   3.911   8.448   1.866
    8PRO    HB3 6163   4.058   8.341   1.819
    8PRO     CA 6164   4.060   8.423   2.014
    8PRO     HA 6165   4.155   8.457   1.974
    8PRO      C 6166   3.985   8.540   2.075
    8PRO      O 6167   3.863   8.526   2.111
    9TRP      N 6168   4.058   8.653   2.087
    9TRP      H 6169   4.154   8.652   2.061
    9TRP     CA 6170   4.005   8.785   2.131
    9TRP     HA 6171   3.899   8.798   2.108
    9TRP     CB 6172   4.033   8.795   2.286
    9TRP    HB2 6173   4.137   8.768   2.294
    9TRP    HB3 6174   4.016   8.899   2.313
    9TRP     CG 6175   3.958   8.695   2.378
    9TRP    CD1 6176   4.004   8.599   2.463
    9TRP    HD1 6177   4.106   8.581   2.489
    9TRP    NE1 6178   3.901   8.529   2.525
    9TRP    HE1 6179   3.908   8.455   2.594
    9TRP    CE2 6180   3.779   8.562   2.469
    9TRP    CZ2 6181   3.644   8.525   2.490
    9TRP    HZ2 6182   3.621   8.448   2.561
    9TRP    CH2 6183   3.543   8.601   2.435
    9TRP    HH2 6184   3.443   8.571   2.463
    9TRP    CZ3 6185   3.575   8.708   2.348
    9TRP    HZ3 6186   3.490   8.759   2.306
    9TRP    CE3 6187   3.710   8.743   2.321
    9TRP    HE3 6188   3.730   8.832   2.264
    9TRP    CD2 6189   3.813   8.668   2.379
    9TRP      C 6190   4.079   8.898   2.058
    9TRP      O 6191   4.198   8.914   2.068
   10ARG      N 6192   4.004   8.981   1.987
   10ARG      H 6193   3.909   8.949   1.968
   10ARG     CA 6194   4.053   9.097   1.926
   10ARG     HA 6195   4.149   9.074   1.881
   10ARG     CB 6196   3.950   9.142   1.824
   10ARG    HB2 6197   3.853   9.161   1.873
   10ARG    HB3 6198   3.983   9.242   1.794
   10ARG     CG 6199   3.928   9.054   1.704
   10ARG    HG2 6200   4.028   9.049   1.659
   10ARG    HG3 6201   3.910   8.949   1.726
   10ARG     CD 6202   3.821   9.112   1.603
   10ARG    HD2 6203   3.824   9.057   1.509
   10ARG    HD3 6204   3.721   9.117   1.649
   10ARG     NE 6205   3.863   9.248   1.556
   10ARG     HE 6206   3.948   9.250   1.504
   10ARG     CZ 6207   3.803   9.363   1.594
   10ARG    NH1 6208   3.732   9.366   1.705
   10ARG   HH11 6209   3.734   9.297   1.778
   10ARG   HH12 6210   3.678   9.451   1.718
   10ARG    NH2 6211   3.814   9.472   1.521
   10ARG   HH21 6212   3.847   9.475   1.427
   10ARG   HH22 6213   3.771   9.555   1.559
   10ARG      C 6214   4.074   9.206   2.030
   10ARG      O 6215   3.996   9.222   2.125
   11ARG      N 6216   4.181   9.288   2.022
   11ARG      H 6217   4.242   9.269   1.945
   11ARG     CA 6218   4.219   9.403   2.106
   11ARG     HA 6219   4.121   9.450   2.126
   11ARG     CB 6220   4.283   9.360   2.247
   11ARG    HB2 6221   4.326   9.449   2.295
   11ARG    HB3 6222   4.207   9.315   2.310
   11ARG     CG 6223   4.403   9.264   2.230
   11ARG    HG2 6224   4.368   9.181   2.170
   11ARG    HG3 6225   4.480   9.311   2.169
   11ARG     CD 6226   4.457   9.204   2.368
   11ARG    HD2 6227   4.518   9.284   2.405
   11ARG    HD3 6228   4.371   9.177   2.431
   11ARG     NE 6229   4.546   9.088   2.340
   11ARG     HE 6230   4.632   9.096   2.288
   11ARG     CZ 6231   4.510   8.963   2.356
   11ARG    NH1 6232   4.394   8.910   2.389
   11ARG   HH11 6233   4.314   8.964   2.418
   11ARG   HH12 6234   4.380   8.812   2.372
   11ARG    NH2 6235   4.598   8.871   2.327
   11ARG   HH21 6236   4.680   8.902   2.277
   11ARG   HH22 6237   4.597   8.778   2.365
   11ARG      C 6238   4.301   9.501   2.025
   11ARG      O 6239   4.380   9.450   1.943
   12LYS      N 6240   4.301   9.630   2.057
   12LYS      H 6241   4.233   9.655   2.127
   12LYS     CA 6242   4.389   9.734   1.997
   12LYS     HA 6243   4.345   9.739   1.898
   12LYS     CB 6244   4.365   9.864   2.079
   12LYS    HB2 6245   4.262   9.875   2.112
   12LYS    HB3 6246   4.417   9.854   2.174
   12LYS     CG 6247   4.395   9.993   2.014
   12LYS    HG2 6248   4.496   9.993   1.972
   12LYS    HG3 6249   4.320  10.013   1.936
   12LYS     CD 6250   4.387  10.107   2.108
   12LYS    HD2 6251   4.285  10.118   2.145
   12LYS    HD3 6252   4.457  10.093   2.191
   12LYS     CE 6253   4.437  10.236   2.030
   12LYS    HE2 6254   4.534  10.216   1.988
   12LYS    HE3 6255   4.379  10.269   1.943
   12LYS     NZ 6256   4.453  10.352   2.120
   12LYS    HZ1 6257   4.367  10.400   2.145
   12LYS    HZ2 6258   4.505  10.334   2.205
   12LYS    HZ3 6259   4.501  10.422   2.063
   12LYS      C 6260   4.537   9.706   1.973
   12LYS      O 6261   4.601   9.650   2.059
   13NHE      N 6262   4.582   9.766   1.860
   13NHE    HN1 6263   4.521   9.813   1.794
   13NHE    HN2 6264   4.680   9.767   1.836
    1ILE      N 6265  11.275   6.924   1.795
    1ILE     H1 6266  11.267   6.885   1.703
    1ILE     H2 6267  11.214   6.884   1.866
    1ILE     H3 6268  11.366   6.888   1.817
    1ILE     CA 6269  11.286   7.070   1.814
    1ILE     HA 6270  11.330   7.086   1.911
    1ILE     CB 6271  11.377   7.133   1.700
    1ILE     HB 6272  11.471   7.082   1.678
    1ILE    CG2 6273  11.292   7.125   1.572
    1ILE   HG21 6274  11.238   7.218   1.553
    1ILE   HG22 6275  11.350   7.102   1.481
    1ILE   HG23 6276  11.216   7.048   1.579
    1ILE    CG1 6277  11.433   7.274   1.733
    1ILE   HG12 6278  11.467   7.280   1.836
    1ILE   HG13 6279  11.355   7.348   1.718
    1ILE    CD1 6280  11.553   7.315   1.645
    1ILE   HD11 6281  11.526   7.325   1.540
    1ILE   HD12 6282  11.577   7.419   1.668
    1ILE   HD13 6283  11.642   7.254   1.653
    1ILE      C 6284  11.150   7.134   1.831
    1ILE      O 6285  11.056   7.087   1.772
    2LEU      N 6286  11.143   7.240   1.913
    2LEU      H 6287  11.229   7.271   1.953
    2LEU     CA 6288  11.030   7.335   1.910
    2LEU     HA 6289  10.948   7.303   1.845
    2LEU     CB 6290  10.963   7.346   2.046
    2LEU    HB2 6291  11.019   7.421   2.102
    2LEU    HB3 6292  10.862   7.384   2.032
    2LEU     CG 6293  10.955   7.222   2.134
    2LEU     HG 6294  11.051   7.183   2.168
    2LEU    CD1 6295  10.893   7.264   2.274
    2LEU   HD11 6296  10.973   7.307   2.333
    2LEU   HD12 6297  10.813   7.336   2.258
    2LEU   HD13 6298  10.846   7.183   2.332
    2LEU    CD2 6299  10.869   7.116   2.076
    2LEU   HD21 6300  10.782   7.167   2.035
    2LEU   HD22 6301  10.919   7.078   1.987
    2LEU   HD23 6302  10.841   7.034   2.142
    2LEU      C 6303  11.070   7.475   1.861
    2LEU      O 6304  11.186   7.519   1.870
    3ARG      N 6305  10.977   7.541   1.795
    3ARG      H 6306  10.885   7.497   1.789
    3ARG     CA 6307  10.996   7.670   1.726
    3ARG     HA 6308  11.092   7.712   1.759
    3ARG     CB 6309  11.008   7.657   1.571
    3ARG    HB2 6310  11.049   7.751   1.535
    3ARG    HB3 6311  11.089   7.584   1.556
    3ARG     CG 6312  10.883   7.616   1.488
    3ARG    HG2 6313  10.837   7.524   1.524
    3ARG    HG3 6314  10.810   7.697   1.490
    3ARG     CD 6315  10.908   7.597   1.339
    3ARG    HD2 6316  10.813   7.615   1.288
    3ARG    HD3 6317  10.967   7.682   1.303
    3ARG     NE 6318  10.960   7.471   1.300
    3ARG     HE 6319  10.891   7.400   1.289
    3ARG     CZ 6320  11.086   7.445   1.262
    3ARG    NH1 6321  11.173   7.540   1.233
    3ARG   HH11 6322  11.163   7.634   1.268
    3ARG   HH12 6323  11.264   7.523   1.196
    3ARG    NH2 6324  11.118   7.315   1.245
    3ARG   HH21 6325  11.051   7.240   1.254
    3ARG   HH22 6326  11.211   7.295   1.207
    3ARG      C 6327  10.888   7.771   1.757
    3ARG      O 6328  10.778   7.737   1.801
    4TRP      N 6329  10.926   7.899   1.758
    4TRP      H 6330  11.015   7.924   1.718
    4TRP     CA 6331  10.839   8.010   1.805
    4TRP     HA 6332  10.734   7.978   1.805
    4TRP     CB 6333  10.881   8.041   1.955
    4TRP    HB2 6334  10.990   8.041   1.965
    4TRP    HB3 6335  10.833   8.131   1.992
    4TRP     CG 6336  10.841   7.936   2.053
    4TRP    CD1 6337  10.718   7.921   2.104
    4TRP    HD1 6338  10.630   7.981   2.081
    4TRP    NE1 6339  10.721   7.825   2.199
    4TRP    HE1 6340  10.636   7.794   2.246
    4TRP    CE2 6341  10.845   7.770   2.213
    4TRP    CZ2 6342  10.902   7.668   2.291
    4TRP    HZ2 6343  10.852   7.610   2.367
    4TRP    CH2 6344  11.034   7.633   2.268
    4TRP    HH2 6345  11.085   7.558   2.326
    4TRP    CZ3 6346  11.104   7.679   2.157
    4TRP    HZ3 6347  11.207   7.648   2.145
    4TRP    CE3 6348  11.053   7.783   2.074
    4TRP    HE3 6349  11.109   7.823   1.989
    4TRP    CD2 6350  10.922   7.833   2.104
    4TRP      C 6351  10.858   8.144   1.713
    4TRP      O 6352  10.954   8.149   1.636
    5PRO      N 6353  10.776   8.246   1.732
    5PRO     CD 6354  10.645   8.226   1.789
    5PRO    HD2 6355  10.643   8.255   1.893
    5PRO    HD3 6356  10.603   8.125   1.778
    5PRO     CG 6357  10.556   8.326   1.709
    5PRO    HG2 6358  10.466   8.356   1.764
    5PRO    HG3 6359  10.523   8.277   1.617
    5PRO     CB 6360  10.649   8.443   1.690
    5PRO    HB2 6361  10.662   8.499   1.784
    5PRO    HB3 6362  10.613   8.497   1.604
    5PRO     CA 6363  10.781   8.373   1.662
    5PRO     HA 6364  10.786   8.352   1.555
    5PRO      C 6365  10.902   8.462   1.699
    5PRO      O 6366  10.957   8.427   1.807
    6TRP      N 6367  10.934   8.576   1.640
    6TRP      H 6368  10.886   8.584   1.551
    6TRP     CA 6369  11.039   8.676   1.687
    6TRP     HA 6370  11.128   8.623   1.723
    6TRP     CB 6371  11.083   8.757   1.558
    6TRP    HB2 6372  10.993   8.796   1.511
    6TRP    HB3 6373  11.146   8.844   1.577
    6TRP     CG 6374  11.169   8.682   1.455
    6TRP    CD1 6375  11.123   8.620   1.344
    6TRP    HD1 6376  11.018   8.631   1.316
    6TRP    NE1 6377  11.221   8.547   1.272
    6TRP    HE1 6378  11.195   8.489   1.194
    6TRP    CE2 6379  11.332   8.545   1.350
    6TRP    CZ2 6380  11.457   8.483   1.338
    6TRP    HZ2 6381  11.472   8.406   1.263
    6TRP    CH2 6382  11.562   8.505   1.425
    6TRP    HH2 6383  11.650   8.446   1.408
    6TRP    CZ3 6384  11.549   8.588   1.538
    6TRP    HZ3 6385  11.629   8.601   1.609
    6TRP    CE3 6386  11.421   8.649   1.555
    6TRP    HE3 6387  11.406   8.718   1.637
    6TRP    CD2 6388  11.311   8.634   1.461
    6TRP      C 6389  10.999   8.765   1.795
    6TRP      O 6390  11.083   8.836   1.855
    7TRP      N 6391  10.867   8.767   1.827
    7TRP      H 6392  10.810   8.706   1.771
    7TRP     CA 6393  10.807   8.863   1.921
    7TRP     HA 6394  10.845   8.961   1.894
    7TRP     CB 6395  10.654   8.854   1.909
    7TRP    HB2 6396  10.614   8.787   1.984
    7TRP    HB3 6397  10.616   8.950   1.942
    7TRP     CG 6398  10.583   8.833   1.776
    7TRP    CD1 6399  10.454   8.792   1.759
    7TRP    HD1 6400  10.387   8.769   1.841
    7TRP    NE1 6401  10.414   8.781   1.629
    7TRP    HE1 6402  10.323   8.743   1.607
    7TRP    CE2 6403  10.519   8.827   1.548
    7TRP    CZ2 6404  10.523   8.843   1.411
    7TRP    HZ2 6405  10.436   8.814   1.352
    7TRP    CH2 6406  10.641   8.886   1.350
    7TRP    HH2 6407  10.641   8.901   1.242
    7TRP    CZ3 6408  10.752   8.916   1.430
    7TRP    HZ3 6409  10.848   8.942   1.383
    7TRP    CE3 6410  10.737   8.916   1.572
    7TRP    HE3 6411  10.812   8.959   1.636
    7TRP    CD2 6412  10.622   8.862   1.638
    7TRP      C 6413  10.857   8.830   2.059
    7TRP      O 6414  10.870   8.711   2.090
    8PRO      N 6415  10.870   8.926   2.155
    8PRO     CD 6416  10.828   9.065   2.146
    8PRO    HD2 6417  10.723   9.073   2.116
    8PRO    HD3 6418  10.896   9.116   2.077
    8PRO     CG 6419  10.836   9.115   2.290
    8PRO    HG2 6420  10.736   9.112   2.334
    8PRO    HG3 6421  10.865   9.219   2.291
    8PRO     CB 6422  10.940   9.024   2.360
    8PRO    HB2 6423  10.909   9.008   2.464
    8PRO    HB3 6424  11.041   9.062   2.341
    8PRO     CA 6425  10.926   8.892   2.287
    8PRO     HA 6426  11.028   8.855   2.280
    8PRO      C 6427  10.841   8.797   2.369
    8PRO      O 6428  10.725   8.831   2.406
    9TRP      N 6429  10.901   8.679   2.397
    9TRP      H 6430  10.991   8.659   2.359
    9TRP     CA 6431  10.846   8.574   2.486
    9TRP     HA 6432  10.780   8.615   2.564
    9TRP     CB 6433  10.770   8.472   2.394
    9TRP    HB2 6434  10.842   8.450   2.316
    9TRP    HB3 6435  10.750   8.384   2.455
    9TRP     CG 6436  10.644   8.523   2.319
    9TRP    CD1 6437  10.615   8.533   2.187
    9TRP    HD1 6438  10.675   8.496   2.106
    9TRP    NE1 6439  10.491   8.589   2.162
    9TRP    HE1 6440  10.444   8.604   2.074
    9TRP    CE2 6441  10.436   8.639   2.280
    9TRP    CZ2 6442  10.316   8.703   2.316
    9TRP    HZ2 6443  10.245   8.730   2.240
    9TRP    CH2 6444  10.281   8.712   2.449
    9TRP    HH2 6445  10.183   8.754   2.468
    9TRP    CZ3 6446  10.370   8.667   2.548
    9TRP    HZ3 6447  10.338   8.682   2.650
    9TRP    CE3 6448  10.495   8.607   2.514
    9TRP    HE3 6449  10.555   8.564   2.592
    9TRP    CD2 6450  10.530   8.595   2.379
    9TRP      C 6451  10.960   8.502   2.560
    9TRP      O 6452  11.046   8.442   2.501
   10ARG      N 6453  10.955   8.505   2.692
   10ARG      H 6454  10.892   8.574   2.733
   10ARG     CA 6455  11.044   8.434   2.774
   10ARG     HA 6456  11.143   8.440   2.732
   10ARG     CB 6457  11.033   8.492   2.914
   10ARG    HB2 6458  10.931   8.485   2.951
   10ARG    HB3 6459  11.088   8.421   2.978
   10ARG     CG 6460  11.085   8.632   2.934
   10ARG    HG2 6461  11.190   8.625   2.901
   10ARG    HG3 6462  11.047   8.706   2.864
   10ARG     CD 6463  11.073   8.682   3.084
   10ARG    HD2 6464  11.129   8.773   3.098
   10ARG    HD3 6465  10.968   8.689   3.115
   10ARG     NE 6466  11.148   8.589   3.175
   10ARG     HE 6467  11.247   8.586   3.159
   10ARG     CZ 6468  11.089   8.503   3.260
   10ARG    NH1 6469  10.965   8.465   3.241
   10ARG   HH11 6470  10.913   8.477   3.154
   10ARG   HH12 6471  10.923   8.413   3.317
   10ARG    NH2 6472  11.154   8.457   3.365
   10ARG   HH21 6473  11.240   8.494   3.400
   10ARG   HH22 6474  11.106   8.388   3.421
   10ARG      C 6475  11.004   8.286   2.777
   10ARG      O 6476  10.885   8.250   2.777
   11ARG      N 6477  11.099   8.190   2.777
   11ARG      H 6478  11.193   8.225   2.774
   11ARG     CA 6479  11.086   8.044   2.785
   11ARG     HA 6480  11.004   8.033   2.857
   11ARG     CB 6481  11.041   7.976   2.647
   11ARG    HB2 6482  11.052   7.867   2.655
   11ARG    HB3 6483  10.938   8.003   2.623
   11ARG     CG 6484  11.135   8.015   2.530
   11ARG    HG2 6485  11.138   8.124   2.527
   11ARG    HG3 6486  11.237   7.985   2.552
   11ARG     CD 6487  11.082   7.966   2.387
   11ARG    HD2 6488  11.113   7.863   2.386
   11ARG    HD3 6489  10.974   7.982   2.381
   11ARG     NE 6490  11.157   8.037   2.280
   11ARG     HE 6491  11.257   8.029   2.267
   11ARG     CZ 6492  11.107   8.136   2.209
   11ARG    NH1 6493  10.992   8.199   2.218
   11ARG   HH11 6494  10.917   8.171   2.281
   11ARG   HH12 6495  10.982   8.287   2.172
   11ARG    NH2 6496  11.184   8.189   2.119
   11ARG   HH21 6497  11.281   8.164   2.122
   11ARG   HH22 6498  11.149   8.239   2.038
   11ARG      C 6499  11.210   7.985   2.849
   11ARG      O 6500  11.318   8.040   2.818
   12LYS      N 6501  11.203   7.869   2.915
   12LYS      H 6502  11.109   7.837   2.929
   12LYS     CA 6503  11.318   7.793   2.968
   12LYS     HA 6504  11.348   7.858   3.048
   12LYS     CB 6505  11.260   7.658   3.020
   12LYS    HB2 6506  11.162   7.668   3.064
   12LYS    HB3 6507  11.238   7.595   2.934
   12LYS     CG 6508  11.338   7.585   3.123
   12LYS    HG2 6509  11.441   7.572   3.092
   12LYS    HG3 6510  11.331   7.639   3.218
   12LYS     CD 6511  11.282   7.450   3.149
   12LYS    HD2 6512  11.182   7.458   3.191
   12LYS    HD3 6513  11.282   7.391   3.058
   12LYS     CE 6514  11.383   7.378   3.249
   12LYS    HE2 6515  11.483   7.381   3.207
   12LYS    HE3 6516  11.398   7.420   3.348
   12LYS     NZ 6517  11.350   7.234   3.266
   12LYS    HZ1 6518  11.273   7.215   3.329
   12LYS    HZ2 6519  11.334   7.183   3.181
   12LYS    HZ3 6520  11.429   7.196   3.317
   12LYS      C 6521  11.444   7.774   2.883
   12LYS      O 6522  11.433   7.746   2.766
   13NHE      N 6523  11.556   7.773   2.959
   13NHE    HN1 6524  11.556   7.797   3.058
   13NHE    HN2 6525  11.647   7.751   2.921
    1ILE      N 6526  10.493  10.203  11.512
    1ILE     H1 6527  10.550  10.135  11.560
    1ILE     H2 6528  10.393  10.197  11.530
    1ILE     H3 6529  10.523  10.284  11.563
    1ILE     CA 6530  10.520  10.235  11.372
    1ILE     HA 6531  10.475  10.332  11.352
    1ILE     CB 6532  10.676  10.239  11.344
    1ILE     HB 6533  10.737  10.294  11.415
    1ILE    CG2 6534  10.721  10.092  11.350
    1ILE   HG21 6535  10.724  10.047  11.251
    1ILE   HG22 6536  10.819  10.078  11.397
    1ILE   HG23 6537  10.652  10.032  11.408
    1ILE    CG1 6538  10.717  10.315  11.214
    1ILE   HG12 6539  10.659  10.407  11.203
    1ILE   HG13 6540  10.698  10.251  11.128
    1ILE    CD1 6541  10.865  10.355  11.211
    1ILE   HD11 6542  10.932  10.269  11.210
    1ILE   HD12 6543  10.886  10.397  11.113
    1ILE   HD13 6544  10.898  10.425  11.288
    1ILE      C 6545  10.439  10.147  11.278
    1ILE      O 6546  10.417  10.032  11.312
    2LEU      N 6547  10.397  10.201  11.164
    2LEU      H 6548  10.425  10.296  11.146
    2LEU     CA 6549  10.353  10.120  11.049
    2LEU     HA 6550  10.346  10.013  11.071
    2LEU     CB 6551  10.212  10.154  11.006
    2LEU    HB2 6552  10.220  10.239  10.938
    2LEU    HB3 6553  10.170  10.071  10.950
    2LEU     CG 6554  10.111  10.194  11.113
    2LEU     HG 6555  10.134  10.286  11.167
    2LEU    CD1 6556   9.976  10.237  11.041
    2LEU   HD11 6557   9.989  10.340  11.008
    2LEU   HD12 6558   9.957  10.171  10.956
    2LEU   HD13 6559   9.885  10.230  11.102
    2LEU    CD2 6560  10.079  10.082  11.205
    2LEU   HD21 6561  10.070   9.993  11.143
    2LEU   HD22 6562  10.168  10.062  11.264
    2LEU   HD23 6563   9.993  10.095  11.270
    2LEU      C 6564  10.447  10.132  10.927
    2LEU      O 6565  10.521  10.231  10.908
    3ARG      N 6566  10.457  10.023  10.852
    3ARG      H 6567  10.397   9.945  10.876
    3ARG     CA 6568  10.552  10.006  10.740
    3ARG     HA 6569  10.594  10.104  10.715
    3ARG     CB 6570  10.675   9.917  10.776
    3ARG    HB2 6571  10.749   9.933  10.698
    3ARG    HB3 6572  10.717   9.963  10.865
    3ARG     CG 6573  10.653   9.764  10.800
    3ARG    HG2 6574  10.578   9.743  10.875
    3ARG    HG3 6575  10.627   9.716  10.706
    3ARG     CD 6576  10.779   9.688  10.842
    3ARG    HD2 6577  10.765   9.584  10.812
    3ARG    HD3 6578  10.861   9.718  10.777
    3ARG     NE 6579  10.810   9.693  10.981
    3ARG     HE 6580  10.761   9.627  11.037
    3ARG     CZ 6581  10.909   9.765  11.037
    3ARG    NH1 6582  11.006   9.821  10.967
    3ARG   HH11 6583  10.994   9.843  10.870
    3ARG   HH12 6584  11.084   9.867  11.007
    3ARG    NH2 6585  10.911   9.767  11.172
    3ARG   HH21 6586  10.847   9.716  11.229
    3ARG   HH22 6587  10.991   9.813  11.216
    3ARG      C 6588  10.486   9.950  10.615
    3ARG      O 6589  10.380   9.890  10.620
    4TRP      N 6590  10.539   9.990  10.499
    4TRP      H 6591  10.628  10.037  10.499
    4TRP     CA 6592  10.477   9.962  10.367
    4TRP     HA 6593  10.406   9.879  10.376
    4TRP     CB 6594  10.394  10.092  10.327
    4TRP    HB2 6595  10.451  10.182  10.349
    4TRP    HB3 6596  10.357  10.085  10.224
    4TRP     CG 6597  10.270  10.114  10.407
    4TRP    CD1 6598  10.154  10.050  10.389
    4TRP    HD1 6599  10.133   9.972  10.316
    4TRP    NE1 6600  10.060  10.104  10.471
    4TRP    HE1 6601   9.966  10.065  10.478
    4TRP    CE2 6602  10.111  10.204  10.549
    4TRP    CZ2 6603  10.062  10.288  10.649
    4TRP    HZ2 6604   9.960  10.293  10.685
    4TRP    CH2 6605  10.151  10.373  10.714
    4TRP    HH2 6606  10.120  10.443  10.790
    4TRP    CZ3 6607  10.288  10.361  10.698
    4TRP    HZ3 6608  10.352  10.431  10.752
    4TRP    CE3 6609  10.346  10.278  10.597
    4TRP    HE3 6610  10.454  10.272  10.581
    4TRP    CD2 6611  10.256  10.200  10.518
    4TRP      C 6612  10.589   9.930  10.254
    4TRP      O 6613  10.707   9.956  10.278
    5PRO      N 6614  10.549   9.887  10.135
    5PRO     CD 6615  10.423   9.820  10.119
    5PRO    HD2 6616  10.348   9.887  10.078
    5PRO    HD3 6617  10.382   9.772  10.210
    5PRO     CG 6618  10.453   9.709  10.014
    5PRO    HG2 6619  10.364   9.677   9.960
    5PRO    HG3 6620  10.493   9.621  10.067
    5PRO     CB 6621  10.551   9.779   9.923
    5PRO    HB2 6622  10.500   9.853   9.859
    5PRO    HB3 6623  10.608   9.701   9.874
    5PRO     CA 6624  10.635   9.858  10.022
    5PRO     HA 6625  10.714   9.792  10.057
    5PRO      C 6626  10.700   9.982   9.956
    5PRO      O 6627  10.642  10.089   9.988
    6TRP      N 6628  10.790   9.979   9.860
    6TRP      H 6629  10.832   9.887   9.854
    6TRP     CA 6630  10.841  10.098   9.780
    6TRP     HA 6631  10.854  10.184   9.844
    6TRP     CB 6632  10.985  10.057   9.727
    6TRP    HB2 6633  10.976   9.961   9.676
    6TRP    HB3 6634  11.028  10.125   9.653
    6TRP     CG 6635  11.098  10.053   9.830
    6TRP    CD1 6636  11.141   9.941   9.895
    6TRP    HD1 6637  11.102   9.844   9.866
    6TRP    NE1 6638  11.238   9.966   9.996
    6TRP    HE1 6639  11.269   9.892  10.057
    6TRP    CE2 6640  11.244  10.101  10.011
    6TRP    CZ2 6641  11.314  10.185  10.099
    6TRP    HZ2 6642  11.363  10.142  10.186
    6TRP    CH2 6643  11.316  10.322  10.088
    6TRP    HH2 6644  11.368  10.375  10.166
    6TRP    CZ3 6645  11.241  10.390   9.991
    6TRP    HZ3 6646  11.236  10.498   9.986
    6TRP    CE3 6647  11.165  10.307   9.902
    6TRP    HE3 6648  11.109  10.353   9.822
    6TRP    CD2 6649  11.167  10.162   9.906
    6TRP      C 6650  10.754  10.142   9.670
    6TRP      O 6651  10.775  10.250   9.612
    7TRP      N 6652  10.651  10.061   9.636
    7TRP      H 6653  10.646   9.976   9.691
    7TRP     CA 6654  10.566  10.081   9.519
    7TRP     HA 6655  10.632  10.102   9.436
    7TRP     CB 6656  10.481   9.955   9.497
    7TRP    HB2 6657  10.384   9.966   9.544
    7TRP    HB3 6658  10.455   9.954   9.392
    7TRP     CG 6659  10.535   9.814   9.519
    7TRP    CD1 6660  10.462   9.700   9.535
    7TRP    HD1 6661  10.354   9.699   9.532
    7TRP    NE1 6662  10.536   9.587   9.554
    7TRP    HE1 6663  10.488   9.500   9.575
    7TRP    CE2 6664  10.670   9.621   9.542
    7TRP    CZ2 6665  10.782   9.539   9.545
    7TRP    HZ2 6666  10.768   9.432   9.562
    7TRP    CH2 6667  10.910   9.595   9.536
    7TRP    HH2 6668  10.995   9.528   9.535
    7TRP    CZ3 6669  10.922   9.734   9.520
    7TRP    HZ3 6670  11.020   9.781   9.520
    7TRP    CE3 6671  10.804   9.812   9.499
    7TRP    HE3 6672  10.810   9.914   9.464
    7TRP    CD2 6673  10.672   9.760   9.518
    7TRP      C 6674  10.482  10.204   9.544
    7TRP      O 6675  10.439  10.224   9.657
    8PRO      N 6676  10.439  10.282   9.441
    8PRO     CD 6677  10.453  10.256   9.298
    8PRO    HD2 6678  10.415  10.157   9.272
    8PRO    HD3 6679  10.558  10.269   9.273
    8PRO     CG 6680  10.359  10.356   9.233
    8PRO    HG2 6681  10.264  10.307   9.209
    8PRO    HG3 6682  10.400  10.389   9.138
    8PRO     CB 6683  10.346  10.474   9.334
    8PRO    HB2 6684  10.245  10.514   9.330
    8PRO    HB3 6685  10.431  10.543   9.321
    8PRO     CA 6686  10.363  10.406   9.468
    8PRO     HA 6687  10.421  10.477   9.527
    8PRO      C 6688  10.228  10.385   9.532
    8PRO      O 6689  10.138  10.320   9.470
    9TRP      N 6690  10.215  10.438   9.656
    9TRP      H 6691  10.293  10.482   9.698
    9TRP     CA 6692  10.089  10.443   9.734
    9TRP     HA 6693  10.000  10.445   9.671
    9TRP     CB 6694  10.090  10.318   9.829
    9TRP    HB2 6695  10.188  10.322   9.875
    9TRP    HB3 6696  10.011  10.333   9.902
    9TRP     CG 6697  10.084  10.178   9.763
    9TRP    CD1 6698  10.171  10.073   9.764
    9TRP    HD1 6699  10.260  10.065   9.823
    9TRP    NE1 6700  10.128   9.966   9.687
    9TRP    HE1 6701  10.171   9.876   9.674
    9TRP    CE2 6702  10.017  10.002   9.612
    9TRP    CZ2 6703   9.931   9.937   9.520
    9TRP    HZ2 6704   9.953   9.837   9.488
    9TRP    CH2 6705   9.810   9.995   9.487
    9TRP    HH2 6706   9.747   9.935   9.423
    9TRP    CZ3 6707   9.778  10.123   9.536
    9TRP    HZ3 6708   9.684  10.163   9.502
    9TRP    CE3 6709   9.865  10.192   9.625
    9TRP    HE3 6710   9.832  10.284   9.669
    9TRP    CD2 6711   9.987  10.133   9.661
    9TRP      C 6712  10.084  10.571   9.818
    9TRP      O 6713  10.168  10.596   9.902
   10ARG      N 6714   9.981  10.651   9.797
   10ARG      H 6715   9.928  10.634   9.712
   10ARG     CA 6716   9.954  10.766   9.874
   10ARG     HA 6717  10.048  10.817   9.894
   10ARG     CB 6718   9.855  10.851   9.798
   10ARG    HB2 6719   9.763  10.794   9.778
   10ARG    HB3 6720   9.822  10.927   9.870
   10ARG     CG 6721   9.903  10.914   9.670
   10ARG    HG2 6722   9.989  10.974   9.703
   10ARG    HG3 6723   9.951  10.847   9.600
   10ARG     CD 6724   9.792  11.004   9.600
   10ARG    HD2 6725   9.836  11.063   9.521
   10ARG    HD3 6726   9.707  10.942   9.567
   10ARG     NE 6727   9.746  11.111   9.693
   10ARG     HE 6728   9.817  11.178   9.720
   10ARG     CZ 6729   9.625  11.112   9.753
   10ARG    NH1 6730   9.557  11.001   9.767
   10ARG   HH11 6731   9.595  10.907   9.756
   10ARG   HH12 6732   9.462  11.012   9.798
   10ARG    NH2 6733   9.574  11.225   9.799
   10ARG   HH21 6734   9.607  11.316   9.776
   10ARG   HH22 6735   9.486  11.217   9.847
   10ARG      C 6736   9.895  10.725  10.009
   10ARG      O 6737   9.815  10.630  10.018
   11ARG      N 6738   9.929  10.790  10.122
   11ARG      H 6739   9.996  10.864  10.108
   11ARG     CA 6740   9.881  10.773  10.260
   11ARG     HA 6741   9.774  10.754  10.244
   11ARG     CB 6742   9.944  10.646  10.334
   11ARG    HB2 6743   9.920  10.650  10.441
   11ARG    HB3 6744   9.907  10.554  10.289
   11ARG     CG 6745  10.099  10.648  10.330
   11ARG    HG2 6746  10.128  10.657  10.227
   11ARG    HG3 6747  10.137  10.738  10.378
   11ARG     CD 6748  10.166  10.512  10.386
   11ARG    HD2 6749  10.162  10.528  10.492
   11ARG    HD3 6750  10.109  10.427  10.348
   11ARG     NE 6751  10.309  10.509  10.346
   11ARG     HE 6752  10.377  10.577  10.377
   11ARG     CZ 6753  10.356  10.434  10.249
   11ARG    NH1 6754  10.295  10.356  10.163
   11ARG   HH11 6755  10.195  10.336  10.166
   11ARG   HH12 6756  10.345  10.327  10.081
   11ARG    NH2 6757  10.484  10.441  10.225
   11ARG   HH21 6758  10.534  10.516  10.269
   11ARG   HH22 6759  10.536  10.368  10.180
   11ARG      C 6760   9.893  10.904  10.335
   11ARG      O 6761   9.994  10.972  10.308
   12LYS      N 6762   9.811  10.930  10.436
   12LYS      H 6763   9.736  10.864  10.446
   12LYS     CA 6764   9.822  11.047  10.528
   12LYS     HA 6765   9.793  11.126  10.460
   12LYS     CB 6766   9.716  11.023  10.640
   12LYS    HB2 6767   9.626  10.976  10.603
   12LYS    HB3 6768   9.754  10.947  10.707
   12LYS     CG 6769   9.667  11.142  10.713
   12LYS    HG2 6770   9.750  11.201  10.752
   12LYS    HG3 6771   9.603  11.202  10.647
   12LYS     CD 6772   9.582  11.105  10.829
   12LYS    HD2 6773   9.492  11.054  10.795
   12LYS    HD3 6774   9.638  11.042  10.898
   12LYS     CE 6775   9.550  11.239  10.907
   12LYS    HE2 6776   9.643  11.290  10.931
   12LYS    HE3 6777   9.492  11.316  10.856
   12LYS     NZ 6778   9.483  11.213  11.037
   12LYS    HZ1 6779   9.384  11.191  11.032
   12LYS    HZ2 6780   9.527  11.143  11.095
   12LYS    HZ3 6781   9.483  11.303  11.085
   12LYS      C 6782   9.958  11.089  10.584
   12LYS      O 6783  10.035  11.004  10.623
   13NHE      N 6784   9.967  11.224  10.598
   13NHE    HN1 6785   9.897  11.288  10.562
   13NHE    HN2 6786  10.045  11.268  10.643
    1ILE      N 6787   1.397   9.148   5.539
    1ILE     H1 6788   1.422   9.050   5.530
    1ILE     H2 6789   1.372   9.195   5.453
    1ILE     H3 6790   1.309   9.135   5.587
    1ILE     CA 6791   1.475   9.236   5.627
    1ILE     HA 6792   1.413   9.321   5.650
    1ILE     CB 6793   1.518   9.159   5.759
    1ILE     HB 6794   1.441   9.102   5.810
    1ILE    CG2 6795   1.626   9.059   5.714
    1ILE   HG21 6796   1.726   9.098   5.728
    1ILE   HG22 6797   1.620   8.962   5.766
    1ILE   HG23 6798   1.616   9.036   5.609
    1ILE    CG1 6799   1.560   9.252   5.876
    1ILE   HG12 6800   1.493   9.338   5.885
    1ILE   HG13 6801   1.661   9.288   5.859
    1ILE    CD1 6802   1.559   9.182   6.014
    1ILE   HD11 6803   1.632   9.102   6.020
    1ILE   HD12 6804   1.600   9.251   6.087
    1ILE   HD13 6805   1.462   9.145   6.049
    1ILE      C 6806   1.588   9.303   5.551
    1ILE      O 6807   1.643   9.241   5.462
    2LEU      N 6808   1.621   9.427   5.588
    2LEU      H 6809   1.571   9.466   5.666
    2LEU     CA 6810   1.750   9.489   5.553
    2LEU     HA 6811   1.810   9.429   5.483
    2LEU     CB 6812   1.731   9.619   5.477
    2LEU    HB2 6813   1.719   9.697   5.552
    2LEU    HB3 6814   1.821   9.642   5.421
    2LEU     CG 6815   1.613   9.632   5.382
    2LEU     HG 6816   1.515   9.627   5.429
    2LEU    CD1 6817   1.609   9.781   5.326
    2LEU   HD11 6818   1.561   9.842   5.402
    2LEU   HD12 6819   1.710   9.816   5.307
    2LEU   HD13 6820   1.556   9.795   5.231
    2LEU    CD2 6821   1.623   9.541   5.265
    2LEU   HD21 6822   1.728   9.544   5.234
    2LEU   HD22 6823   1.612   9.439   5.303
    2LEU   HD23 6824   1.555   9.558   5.183
    2LEU      C 6825   1.841   9.515   5.675
    2LEU      O 6826   1.796   9.528   5.790
    3ARG      N 6827   1.971   9.505   5.651
    3ARG      H 6828   1.999   9.490   5.556
    3ARG     CA 6829   2.076   9.510   5.755
    3ARG     HA 6830   2.031   9.546   5.848
    3ARG     CB 6831   2.136   9.370   5.790
    3ARG    HB2 6832   2.190   9.382   5.883
    3ARG    HB3 6833   2.049   9.309   5.816
    3ARG     CG 6834   2.224   9.296   5.684
    3ARG    HG2 6835   2.174   9.285   5.588
    3ARG    HG3 6836   2.318   9.350   5.672
    3ARG     CD 6837   2.269   9.157   5.726
    3ARG    HD2 6838   2.362   9.136   5.671
    3ARG    HD3 6839   2.307   9.161   5.828
    3ARG     NE 6840   2.176   9.052   5.704
    3ARG     HE 6841   2.176   9.016   5.610
    3ARG     CZ 6842   2.104   8.989   5.798
    3ARG    NH1 6843   2.128   9.000   5.927
    3ARG   HH11 6844   2.177   9.079   5.964
    3ARG   HH12 6845   2.081   8.948   5.997
    3ARG    NH2 6846   2.009   8.903   5.752
    3ARG   HH21 6847   1.996   8.882   5.655
    3ARG   HH22 6848   1.960   8.848   5.823
    3ARG      C 6849   2.190   9.603   5.719
    3ARG      O 6850   2.211   9.638   5.604
    4TRP      N 6851   2.250   9.663   5.822
    4TRP      H 6852   2.233   9.631   5.916
    4TRP     CA 6853   2.350   9.772   5.807
    4TRP     HA 6854   2.391   9.771   5.705
    4TRP     CB 6855   2.272   9.909   5.826
    4TRP    HB2 6856   2.203   9.903   5.910
    4TRP    HB3 6857   2.341   9.994   5.830
    4TRP     CG 6858   2.180   9.944   5.713
    4TRP    CD1 6859   2.219   9.997   5.596
    4TRP    HD1 6860   2.320  10.020   5.565
    4TRP    NE1 6861   2.108  10.028   5.524
    4TRP    HE1 6862   2.115  10.064   5.428
    4TRP    CE2 6863   1.993   9.995   5.588
    4TRP    CZ2 6864   1.856  10.001   5.559
    4TRP    HZ2 6865   1.810  10.043   5.471
    4TRP    CH2 6866   1.766   9.944   5.649
    4TRP    HH2 6867   1.660   9.948   5.635
    4TRP    CZ3 6868   1.809   9.865   5.754
    4TRP    HZ3 6869   1.733   9.824   5.821
    4TRP    CE3 6870   1.947   9.854   5.791
    4TRP    HE3 6871   1.980   9.795   5.876
    4TRP    CD2 6872   2.042   9.924   5.708
    4TRP      C 6873   2.469   9.760   5.917
    4TRP      O 6874   2.454   9.684   6.012
    5PRO      N 6875   2.575   9.840   5.905
    5PRO     CD 6876   2.611   9.896   5.778
    5PRO    HD2 6877   2.580  10.000   5.770
    5PRO    HD3 6878   2.577   9.841   5.689
    5PRO     CG 6879   2.767   9.892   5.780
    5PRO    HG2 6880   2.813   9.966   5.714
    5PRO    HG3 6881   2.800   9.794   5.746
    5PRO     CB 6882   2.796   9.923   5.925
    5PRO    HB2 6883   2.780  10.029   5.947
    5PRO    HB3 6884   2.895   9.882   5.945
    5PRO     CA 6885   2.688   9.845   5.997
    5PRO     HA 6886   2.723   9.743   6.010
    5PRO      C 6887   2.656   9.905   6.135
    5PRO      O 6888   2.548   9.971   6.136
    6TRP      N 6889   2.739   9.910   6.238
    6TRP      H 6890   2.816   9.845   6.223
    6TRP     CA 6891   2.719   9.985   6.368
    6TRP     HA 6892   2.615   9.976   6.401
    6TRP     CB 6893   2.808   9.911   6.476
    6TRP    HB2 6894   2.909   9.904   6.437
    6TRP    HB3 6895   2.818   9.964   6.572
    6TRP     CG 6896   2.759   9.774   6.524
    6TRP    CD1 6897   2.801   9.654   6.475
    6TRP    HD1 6898   2.883   9.651   6.404
    6TRP    NE1 6899   2.730   9.542   6.527
    6TRP    HE1 6900   2.746   9.450   6.491
    6TRP    CE2 6901   2.626   9.592   6.599
    6TRP    CZ2 6902   2.518   9.532   6.665
    6TRP    HZ2 6903   2.497   9.427   6.649
    6TRP    CH2 6904   2.428   9.603   6.743
    6TRP    HH2 6905   2.346   9.546   6.783
    6TRP    CZ3 6906   2.434   9.742   6.756
    6TRP    HZ3 6907   2.361   9.799   6.811
    6TRP    CE3 6908   2.541   9.806   6.685
    6TRP    HE3 6909   2.554   9.913   6.694
    6TRP    CD2 6910   2.642   9.734   6.608
    6TRP      C 6911   2.748  10.129   6.364
    6TRP      O 6912   2.715  10.204   6.458
    7TRP      N 6913   2.811  10.175   6.253
    7TRP      H 6914   2.832  10.104   6.185
    7TRP     CA 6915   2.863  10.312   6.239
    7TRP     HA 6916   2.916  10.334   6.331
    7TRP     CB 6917   2.953  10.318   6.115
    7TRP    HB2 6918   2.896  10.353   6.030
    7TRP    HB3 6919   3.021  10.401   6.133
    7TRP     CG 6920   3.046  10.205   6.075
    7TRP    CD1 6921   3.104  10.187   5.953
    7TRP    HD1 6922   3.088  10.254   5.870
    7TRP    NE1 6923   3.183  10.077   5.943
    7TRP    HE1 6924   3.223  10.052   5.853
    7TRP    CE2 6925   3.191  10.018   6.069
    7TRP    CZ2 6926   3.265   9.909   6.110
    7TRP    HZ2 6927   3.326   9.856   6.037
    7TRP    CH2 6928   3.253   9.862   6.242
    7TRP    HH2 6929   3.315   9.779   6.272
    7TRP    CZ3 6930   3.168   9.930   6.331
    7TRP    HZ3 6931   3.151   9.891   6.431
    7TRP    CE3 6932   3.107  10.053   6.288
    7TRP    HE3 6933   3.060  10.118   6.359
    7TRP    CD2 6934   3.109  10.097   6.153
    7TRP      C 6935   2.745  10.405   6.232
    7TRP      O 6936   2.645  10.369   6.168
    8PRO      N 6937   2.752  10.533   6.276
    8PRO     CD 6938   2.871  10.603   6.324
    8PRO    HD2 6939   2.953  10.596   6.251
    8PRO    HD3 6940   2.897  10.561   6.421
    8PRO     CG 6941   2.829  10.749   6.328
    8PRO    HG2 6942   2.864  10.800   6.237
    8PRO    HG3 6943   2.878  10.799   6.410
    8PRO     CB 6944   2.675  10.748   6.344
    8PRO    HB2 6945   2.632  10.832   6.289
    8PRO    HB3 6946   2.649  10.737   6.450
    8PRO     CA 6947   2.633  10.621   6.274
    8PRO     HA 6948   2.552  10.581   6.335
    8PRO      C 6949   2.582  10.653   6.135
    8PRO      O 6950   2.655  10.718   6.054
    9TRP      N 6951   2.457  10.608   6.110
    9TRP      H 6952   2.410  10.553   6.178
    9TRP     CA 6953   2.379  10.638   5.987
    9TRP     HA 6954   2.405  10.733   5.942
    9TRP     CB 6955   2.402  10.518   5.888
    9TRP    HB2 6956   2.384  10.431   5.950
    9TRP    HB3 6957   2.327  10.527   5.809
    9TRP     CG 6958   2.546  10.498   5.833
    9TRP    CD1 6959   2.633  10.395   5.844
    9TRP    HD1 6960   2.614  10.299   5.888
    9TRP    NE1 6961   2.755  10.420   5.782
    9TRP    HE1 6962   2.835  10.359   5.772
    9TRP    CE2 6963   2.762  10.553   5.741
    9TRP    CZ2 6964   2.856  10.633   5.675
    9TRP    HZ2 6965   2.953  10.593   5.650
    9TRP    CH2 6966   2.818  10.756   5.624
    9TRP    HH2 6967   2.894  10.807   5.566
    9TRP    CZ3 6968   2.688  10.804   5.649
    9TRP    HZ3 6969   2.668  10.902   5.610
    9TRP    CE3 6970   2.593  10.727   5.720
    9TRP    HE3 6971   2.492  10.763   5.728
    9TRP    CD2 6972   2.631  10.601   5.771
    9TRP      C 6973   2.229  10.647   6.021
    9TRP      O 6974   2.168  10.554   6.069
   10ARG      N 6975   2.169  10.762   5.992
   10ARG      H 6976   2.231  10.840   5.972
   10ARG     CA 6977   2.031  10.782   6.004
   10ARG     HA 6978   1.997  10.736   6.096
   10ARG     CB 6979   2.006  10.932   5.999
   10ARG    HB2 6980   2.045  10.975   5.906
   10ARG    HB3 6981   1.898  10.942   5.989
   10ARG     CG 6982   2.057  11.014   6.116
   10ARG    HG2 6983   2.007  10.968   6.202
   10ARG    HG3 6984   2.161  10.997   6.142
   10ARG     CD 6985   2.023  11.168   6.103
   10ARG    HD2 6986   2.043  11.219   6.196
   10ARG    HD3 6987   2.075  11.212   6.016
   10ARG     NE 6988   1.875  11.187   6.091
   10ARG     HE 6989   1.822  11.158   6.171
   10ARG     CZ 6990   1.813  11.224   5.977
   10ARG    NH1 6991   1.871  11.205   5.861
   10ARG   HH11 6992   1.951  11.145   5.844
   10ARG   HH12 6993   1.825  11.249   5.782
   10ARG    NH2 6994   1.694  11.279   5.980
   10ARG   HH21 6995   1.650  11.316   6.063
   10ARG   HH22 6996   1.651  11.299   5.891
   10ARG      C 6997   1.958  10.715   5.888
   10ARG      O 6998   2.005  10.713   5.773
   11ARG      N 6999   1.840  10.652   5.910
   11ARG      H 7000   1.809  10.654   6.005
   11ARG     CA 7001   1.749  10.587   5.814
   11ARG     HA 7002   1.756  10.653   5.727
   11ARG     CB 7003   1.799  10.441   5.770
   11ARG    HB2 7004   1.719  10.390   5.715
   11ARG    HB3 7005   1.888  10.449   5.708
   11ARG     CG 7006   1.826  10.349   5.891
   11ARG    HG2 7007   1.895  10.401   5.956
   11ARG    HG3 7008   1.736  10.338   5.951
   11ARG     CD 7009   1.895  10.209   5.851
   11ARG    HD2 7010   1.811  10.152   5.818
   11ARG    HD3 7011   1.972  10.228   5.776
   11ARG     NE 7012   1.949  10.145   5.974
   11ARG     HE 7013   1.891  10.115   6.052
   11ARG     CZ 7014   2.076  10.142   6.005
   11ARG    NH1 7015   2.181  10.198   5.947
   11ARG   HH11 7016   2.176  10.248   5.859
   11ARG   HH12 7017   2.266  10.206   5.999
   11ARG    NH2 7018   2.110  10.082   6.116
   11ARG   HH21 7019   2.035  10.059   6.179
   11ARG   HH22 7020   2.201  10.044   6.133
   11ARG      C 7021   1.607  10.593   5.866
   11ARG      O 7022   1.594  10.580   5.990
   12LYS      N 7023   1.505  10.591   5.781
   12LYS      H 7024   1.533  10.600   5.685
   12LYS     CA 7025   1.361  10.581   5.818
   12LYS     HA 7026   1.347  10.678   5.862
   12LYS     CB 7027   1.283  10.563   5.684
   12LYS    HB2 7028   1.326  10.620   5.603
   12LYS    HB3 7029   1.297  10.461   5.650
   12LYS     CG 7030   1.140  10.603   5.683
   12LYS    HG2 7031   1.086  10.555   5.765
   12LYS    HG3 7032   1.133  10.712   5.689
   12LYS     CD 7033   1.074  10.564   5.557
   12LYS    HD2 7034   1.117  10.617   5.473
   12LYS    HD3 7035   1.079  10.456   5.542
   12LYS     CE 7036   0.919  10.597   5.575
   12LYS    HE2 7037   0.883  10.549   5.665
   12LYS    HE3 7038   0.890  10.701   5.590
   12LYS     NZ 7039   0.838  10.543   5.463
   12LYS    HZ1 7040   0.840  10.597   5.378
   12LYS    HZ2 7041   0.855  10.447   5.440
   12LYS    HZ3 7042   0.741  10.555   5.494
   12LYS      C 7043   1.316  10.481   5.925
   12LYS      O 7044   1.362  10.370   5.926
   13NHE      N 7045   1.213  10.530   5.999
   13NHE    HN1 7046   1.180  10.626   5.991
   13NHE    HN2 7047   1.164  10.474   6.066
    1ILE      N 7048   2.438   3.180   8.725
    1ILE     H1 7049   2.510   3.250   8.738
    1ILE     H2 7050   2.379   3.162   8.806
    1ILE     H3 7051   2.379   3.233   8.663
    1ILE     CA 7052   2.467   3.056   8.652
    1ILE     HA 7053   2.373   3.015   8.619
    1ILE     CB 7054   2.564   3.085   8.529
    1ILE     HB 7055   2.538   3.170   8.466
    1ILE    CG2 7056   2.701   3.116   8.592
    1ILE   HG21 7057   2.764   3.028   8.596
    1ILE   HG22 7058   2.756   3.195   8.540
    1ILE   HG23 7059   2.690   3.151   8.694
    1ILE    CG1 7060   2.565   2.973   8.421
    1ILE   HG12 7061   2.464   2.936   8.401
    1ILE   HG13 7062   2.626   2.891   8.456
    1ILE    CD1 7063   2.622   3.020   8.286
    1ILE   HD11 7064   2.727   3.048   8.292
    1ILE   HD12 7065   2.629   2.933   8.221
    1ILE   HD13 7066   2.567   3.099   8.234
    1ILE      C 7067   2.514   2.947   8.747
    1ILE      O 7068   2.579   2.978   8.844
    2LEU      N 7069   2.479   2.821   8.716
    2LEU      H 7070   2.428   2.808   8.631
    2LEU     CA 7071   2.547   2.704   8.774
    2LEU     HA 7072   2.619   2.729   8.853
    2LEU     CB 7073   2.450   2.612   8.846
    2LEU    HB2 7074   2.408   2.545   8.770
    2LEU    HB3 7075   2.505   2.551   8.916
    2LEU     CG 7076   2.331   2.674   8.919
    2LEU     HG 7077   2.260   2.726   8.855
    2LEU    CD1 7078   2.239   2.556   8.973
    2LEU   HD11 7079   2.177   2.523   8.890
    2LEU   HD12 7080   2.301   2.474   9.010
    2LEU   HD13 7081   2.174   2.582   9.058
    2LEU    CD2 7082   2.373   2.756   9.035
    2LEU   HD21 7083   2.452   2.700   9.084
    2LEU   HD22 7084   2.424   2.844   8.996
    2LEU   HD23 7085   2.295   2.785   9.104
    2LEU      C 7086   2.626   2.622   8.669
    2LEU      O 7087   2.599   2.624   8.548
    3ARG      N 7088   2.735   2.564   8.715
    3ARG      H 7089   2.754   2.570   8.814
    3ARG     CA 7090   2.835   2.493   8.631
    3ARG     HA 7091   2.791   2.478   8.532
    3ARG     CB 7092   2.965   2.576   8.607
    3ARG    HB2 7093   3.017   2.528   8.524
    3ARG    HB3 7094   2.930   2.671   8.566
    3ARG     CG 7095   3.063   2.601   8.726
    3ARG    HG2 7096   3.014   2.645   8.812
    3ARG    HG3 7097   3.110   2.507   8.754
    3ARG     CD 7098   3.182   2.689   8.693
    3ARG    HD2 7099   3.262   2.663   8.763
    3ARG    HD3 7100   3.226   2.656   8.599
    3ARG     NE 7101   3.158   2.830   8.698
    3ARG     HE 7102   3.165   2.869   8.790
    3ARG     CZ 7103   3.147   2.912   8.593
    3ARG    NH1 7104   3.179   2.877   8.470
    3ARG   HH11 7105   3.182   2.781   8.442
    3ARG   HH12 7106   3.178   2.939   8.392
    3ARG    NH2 7107   3.108   3.039   8.621
    3ARG   HH21 7108   3.094   3.073   8.714
    3ARG   HH22 7109   3.108   3.105   8.543
    3ARG      C 7110   2.874   2.357   8.687
    3ARG      O 7111   2.856   2.328   8.804
    4TRP      N 7112   2.905   2.265   8.596
    4TRP      H 7113   2.922   2.293   8.500
    4TRP     CA 7114   2.927   2.121   8.629
    4TRP     HA 7115   2.947   2.111   8.736
    4TRP     CB 7116   2.791   2.046   8.597
    4TRP    HB2 7117   2.749   2.080   8.502
    4TRP    HB3 7118   2.802   1.938   8.604
    4TRP     CG 7119   2.680   2.076   8.692
    4TRP    CD1 7120   2.666   2.023   8.814
    4TRP    HD1 7121   2.733   1.953   8.862
    4TRP    NE1 7122   2.547   2.063   8.866
    4TRP    HE1 7123   2.520   2.038   8.961
    4TRP    CE2 7124   2.479   2.146   8.783
    4TRP    CZ2 7125   2.358   2.217   8.787
    4TRP    HZ2 7126   2.285   2.215   8.867
    4TRP    CH2 7127   2.328   2.303   8.683
    4TRP    HH2 7128   2.235   2.359   8.678
    4TRP    CZ3 7129   2.421   2.337   8.586
    4TRP    HZ3 7130   2.390   2.405   8.507
    4TRP    CE3 7131   2.546   2.269   8.575
    4TRP    HE3 7132   2.618   2.293   8.496
    4TRP    CD2 7133   2.575   2.168   8.672
    4TRP      C 7134   3.048   2.057   8.541
    4TRP      O 7135   3.091   2.120   8.444
    5PRO      N 7136   3.091   1.936   8.571
    5PRO     CD 7137   3.072   1.881   8.703
    5PRO    HD2 7138   2.989   1.811   8.706
    5PRO    HD3 7139   3.060   1.954   8.784
    5PRO     CG 7140   3.204   1.800   8.728
    5PRO    HG2 7141   3.191   1.721   8.801
    5PRO    HG3 7142   3.279   1.869   8.767
    5PRO     CB 7143   3.232   1.745   8.590
    5PRO    HB2 7144   3.164   1.663   8.565
    5PRO    HB3 7145   3.338   1.725   8.588
    5PRO     CA 7146   3.194   1.862   8.501
    5PRO     HA 7147   3.281   1.927   8.493
    5PRO      C 7148   3.156   1.815   8.359
    5PRO      O 7149   3.031   1.817   8.339
    6TRP      N 7150   3.237   1.757   8.272
    6TRP      H 7151   3.333   1.772   8.300
    6TRP     CA 7152   3.198   1.692   8.140
    6TRP     HA 7153   3.122   1.751   8.090
    6TRP     CB 7154   3.327   1.696   8.049
    6TRP    HB2 7155   3.410   1.652   8.106
    6TRP    HB3 7156   3.321   1.638   7.957
    6TRP     CG 7157   3.369   1.833   7.993
    6TRP    CD1 7158   3.461   1.916   8.048
    6TRP    HD1 7159   3.520   1.882   8.133
    6TRP    NE1 7160   3.470   2.043   7.985
    6TRP    HE1 7161   3.529   2.115   8.023
    6TRP    CE2 7162   3.367   2.050   7.896
    6TRP    CZ2 7163   3.320   2.151   7.812
    6TRP    HZ2 7164   3.357   2.252   7.823
    6TRP    CH2 7165   3.219   2.132   7.720
    6TRP    HH2 7166   3.188   2.220   7.666
    6TRP    CZ3 7167   3.150   2.010   7.709
    6TRP    HZ3 7168   3.067   1.997   7.642
    6TRP    CE3 7169   3.194   1.906   7.797
    6TRP    HE3 7170   3.148   1.809   7.791
    6TRP    CD2 7171   3.305   1.921   7.890
    6TRP      C 7172   3.144   1.556   8.150
    6TRP      O 7173   3.089   1.502   8.052
    7TRP      N 7174   3.155   1.494   8.270
    7TRP      H 7175   3.201   1.549   8.341
    7TRP     CA 7176   3.122   1.353   8.293
    7TRP     HA 7177   3.167   1.297   8.212
    7TRP     CB 7178   3.175   1.312   8.431
    7TRP    HB2 7179   3.096   1.320   8.505
    7TRP    HB3 7180   3.189   1.204   8.426
    7TRP     CG 7181   3.307   1.361   8.486
    7TRP    CD1 7182   3.347   1.357   8.617
    7TRP    HD1 7183   3.286   1.317   8.696
    7TRP    NE1 7184   3.472   1.408   8.640
    7TRP    HE1 7185   3.504   1.417   8.735
    7TRP    CE2 7186   3.528   1.442   8.517
    7TRP    CZ2 7187   3.654   1.490   8.489
    7TRP    HZ2 7188   3.723   1.508   8.571
    7TRP    CH2 7189   3.689   1.523   8.357
    7TRP    HH2 7190   3.790   1.556   8.338
    7TRP    CZ3 7191   3.594   1.502   8.255
    7TRP    HZ3 7192   3.616   1.534   8.154
    7TRP    CE3 7193   3.471   1.436   8.287
    7TRP    HE3 7194   3.407   1.399   8.209
    7TRP    CD2 7195   3.429   1.410   8.421
    7TRP      C 7196   2.972   1.339   8.280
    7TRP      O 7197   2.901   1.428   8.325
    8PRO      N 7198   2.916   1.222   8.238
    8PRO     CD 7199   2.982   1.095   8.212
    8PRO    HD2 7200   3.044   1.065   8.298
    8PRO    HD3 7201   3.041   1.108   8.121
    8PRO     CG 7202   2.869   0.995   8.202
    8PRO    HG2 7203   2.858   0.943   8.297
    8PRO    HG3 7204   2.895   0.918   8.129
    8PRO     CB 7205   2.745   1.076   8.159
    8PRO    HB2 7206   2.656   1.035   8.206
    8PRO    HB3 7207   2.745   1.090   8.050
    8PRO     CA 7208   2.769   1.213   8.220
    8PRO     HA 7209   2.732   1.283   8.146
    8PRO      C 7210   2.689   1.226   8.348
    8PRO      O 7211   2.702   1.140   8.441
    9TRP      N 7212   2.606   1.333   8.351
    9TRP      H 7213   2.607   1.398   8.276
    9TRP     CA 7214   2.508   1.362   8.458
    9TRP     HA 7215   2.472   1.271   8.508
    9TRP     CB 7216   2.578   1.459   8.559
    9TRP    HB2 7217   2.619   1.537   8.496
    9TRP    HB3 7218   2.499   1.499   8.624
    9TRP     CG 7219   2.699   1.405   8.639
    9TRP    CD1 7220   2.830   1.444   8.643
    9TRP    HD1 7221   2.871   1.530   8.596
    9TRP    NE1 7222   2.907   1.363   8.726
    9TRP    HE1 7223   3.005   1.373   8.749
    9TRP    CE2 7224   2.836   1.252   8.767
    9TRP    CZ2 7225   2.860   1.140   8.849
    9TRP    HZ2 7226   2.959   1.125   8.890
    9TRP    CH2 7227   2.755   1.063   8.893
    9TRP    HH2 7228   2.781   0.985   8.963
    9TRP    CZ3 7229   2.625   1.089   8.846
    9TRP    HZ3 7230   2.549   1.021   8.881
    9TRP    CE3 7231   2.598   1.198   8.758
    9TRP    HE3 7232   2.496   1.221   8.733
    9TRP    CD2 7233   2.705   1.278   8.715
    9TRP      C 7234   2.383   1.430   8.399
    9TRP      O 7235   2.390   1.536   8.341
   10ARG      N 7236   2.268   1.369   8.418
   10ARG      H 7237   2.274   1.272   8.449
   10ARG     CA 7238   2.144   1.424   8.382
   10ARG     HA 7239   2.154   1.472   8.285
   10ARG     CB 7240   2.042   1.312   8.382
   10ARG    HB2 7241   2.037   1.264   8.481
   10ARG    HB3 7242   1.945   1.362   8.374
   10ARG     CG 7243   2.057   1.205   8.277
   10ARG    HG2 7244   2.052   1.262   8.183
   10ARG    HG3 7245   2.155   1.161   8.269
   10ARG     CD 7246   1.943   1.095   8.284
   10ARG    HD2 7247   1.945   1.032   8.196
   10ARG    HD3 7248   1.949   1.038   8.378
   10ARG     NE 7249   1.808   1.158   8.270
   10ARG     HE 7250   1.792   1.203   8.182
   10ARG     CZ 7251   1.720   1.172   8.372
   10ARG    NH1 7252   1.762   1.168   8.496
   10ARG   HH11 7253   1.858   1.177   8.526
   10ARG   HH12 7254   1.689   1.163   8.566
   10ARG    NH2 7255   1.592   1.188   8.348
   10ARG   HH21 7256   1.548   1.173   8.259
   10ARG   HH22 7257   1.533   1.203   8.428
   10ARG      C 7258   2.103   1.531   8.483
   10ARG      O 7259   2.126   1.518   8.604
   11ARG      N 7260   2.043   1.644   8.441
   11ARG      H 7261   2.030   1.650   8.341
   11ARG     CA 7262   1.989   1.757   8.519
   11ARG     HA 7263   1.946   1.706   8.606
   11ARG     CB 7264   2.103   1.857   8.571
   11ARG    HB2 7265   2.056   1.948   8.611
   11ARG    HB3 7266   2.164   1.809   8.648
   11ARG     CG 7267   2.193   1.908   8.456
   11ARG    HG2 7268   2.231   1.821   8.405
   11ARG    HG3 7269   2.133   1.960   8.381
   11ARG     CD 7270   2.320   1.992   8.507
   11ARG    HD2 7271   2.277   2.089   8.525
   11ARG    HD3 7272   2.363   1.943   8.595
   11ARG     NE 7273   2.418   2.006   8.395
   11ARG     HE 7274   2.396   2.054   8.309
   11ARG     CZ 7275   2.529   1.937   8.387
   11ARG    NH1 7276   2.576   1.840   8.462
   11ARG   HH11 7277   2.533   1.810   8.548
   11ARG   HH12 7278   2.650   1.783   8.425
   11ARG    NH2 7279   2.605   1.960   8.283
   11ARG   HH21 7280   2.565   2.013   8.208
   11ARG   HH22 7281   2.704   1.941   8.282
   11ARG      C 7282   1.876   1.823   8.443
   11ARG      O 7283   1.890   1.828   8.319
   12LYS      N 7284   1.780   1.887   8.509
   12LYS      H 7285   1.784   1.874   8.609
   12LYS     CA 7286   1.672   1.968   8.448
   12LYS     HA 7287   1.614   1.890   8.402
   12LYS     CB 7288   1.597   2.038   8.566
   12LYS    HB2 7289   1.591   1.975   8.654
   12LYS    HB3 7290   1.659   2.119   8.602
   12LYS     CG 7291   1.457   2.081   8.542
   12LYS    HG2 7292   1.450   2.142   8.453
   12LYS    HG3 7293   1.393   1.992   8.536
   12LYS     CD 7294   1.405   2.161   8.655
   12LYS    HD2 7295   1.400   2.101   8.745
   12LYS    HD3 7296   1.466   2.250   8.670
   12LYS     CE 7297   1.262   2.214   8.610
   12LYS    HE2 7298   1.271   2.265   8.515
   12LYS    HE3 7299   1.183   2.141   8.591
   12LYS     NZ 7300   1.207   2.313   8.706
   12LYS    HZ1 7301   1.167   2.275   8.790
   12LYS    HZ2 7302   1.271   2.387   8.732
   12LYS    HZ3 7303   1.126   2.352   8.659
   12LYS      C 7304   1.704   2.066   8.334
   12LYS      O 7305   1.803   2.135   8.341
   13NHE      N 7306   1.603   2.073   8.244
   13NHE    HN1 7307   1.522   2.010   8.246
   13NHE    HN2 7308   1.602   2.140   8.169
    1ILE      N 7309   8.470   1.647   4.697
    1ILE     H1 7310   8.396   1.621   4.760
    1ILE     H2 7311   8.564   1.617   4.723
    1ILE     H3 7312   8.445   1.587   4.620
    1ILE     CA 7313   8.473   1.782   4.639
    1ILE     HA 7314   8.535   1.778   4.550
    1ILE     CB 7315   8.326   1.831   4.604
    1ILE     HB 7316   8.262   1.760   4.550
    1ILE    CG2 7317   8.259   1.857   4.739
    1ILE   HG21 7318   8.266   1.962   4.768
    1ILE   HG22 7319   8.153   1.829   4.743
    1ILE   HG23 7320   8.307   1.802   4.819
    1ILE    CG1 7321   8.320   1.949   4.503
    1ILE   HG12 7322   8.391   1.935   4.421
    1ILE   HG13 7323   8.343   2.041   4.555
    1ILE    CD1 7324   8.181   1.966   4.437
    1ILE   HD11 7325   8.104   1.992   4.508
    1ILE   HD12 7326   8.185   2.057   4.377
    1ILE   HD13 7327   8.147   1.883   4.375
    1ILE      C 7328   8.554   1.878   4.725
    1ILE      O 7329   8.552   1.862   4.846
    2LEU      N 7330   8.623   1.973   4.662
    2LEU      H 7331   8.613   1.977   4.562
    2LEU     CA 7332   8.672   2.094   4.730
    2LEU     HA 7333   8.659   2.091   4.840
    2LEU     CB 7334   8.823   2.109   4.716
    2LEU    HB2 7335   8.839   2.161   4.621
    2LEU    HB3 7336   8.860   2.173   4.795
    2LEU     CG 7337   8.909   1.983   4.712
    2LEU     HG 7338   8.891   1.918   4.627
    2LEU    CD1 7339   9.059   2.026   4.683
    2LEU   HD11 7340   9.067   2.042   4.575
    2LEU   HD12 7341   9.082   2.118   4.737
    2LEU   HD13 7342   9.136   1.955   4.715
    2LEU    CD2 7343   8.908   1.909   4.841
    2LEU   HD21 7344   8.914   1.985   4.919
    2LEU   HD22 7345   8.807   1.868   4.853
    2LEU   HD23 7346   8.982   1.831   4.853
    2LEU      C 7347   8.603   2.223   4.684
    2LEU      O 7348   8.550   2.234   4.572
    3ARG      N 7349   8.590   2.317   4.776
    3ARG      H 7350   8.632   2.299   4.866
    3ARG     CA 7351   8.514   2.443   4.759
    3ARG     HA 7352   8.493   2.455   4.652
    3ARG     CB 7353   8.375   2.441   4.830
    3ARG    HB2 7354   8.319   2.525   4.788
    3ARG    HB3 7355   8.325   2.352   4.791
    3ARG     CG 7356   8.369   2.442   4.985
    3ARG    HG2 7357   8.427   2.363   5.031
    3ARG    HG3 7358   8.403   2.539   5.022
    3ARG     CD 7359   8.228   2.433   5.043
    3ARG    HD2 7360   8.231   2.479   5.143
    3ARG    HD3 7361   8.163   2.503   4.990
    3ARG     NE 7362   8.175   2.301   5.054
    3ARG     HE 7363   8.203   2.252   5.136
    3ARG     CZ 7364   8.079   2.248   4.976
    3ARG    NH1 7365   8.006   2.320   4.893
    3ARG   HH11 7366   8.037   2.409   4.859
    3ARG   HH12 7367   7.930   2.283   4.841
    3ARG    NH2 7368   8.055   2.116   4.994
    3ARG   HH21 7369   8.100   2.060   5.064
    3ARG   HH22 7370   7.977   2.077   4.941
    3ARG      C 7371   8.591   2.565   4.806
    3ARG      O 7372   8.685   2.556   4.884
    4TRP      N 7373   8.566   2.678   4.739
    4TRP      H 7374   8.486   2.683   4.678
    4TRP     CA 7375   8.644   2.803   4.757
    4TRP     HA 7376   8.699   2.799   4.853
    4TRP     CB 7377   8.751   2.807   4.640
    4TRP    HB2 7378   8.705   2.778   4.545
    4TRP    HB3 7379   8.803   2.903   4.637
    4TRP     CG 7380   8.861   2.707   4.653
    4TRP    CD1 7381   8.968   2.720   4.733
    4TRP    HD1 7382   8.989   2.802   4.801
    4TRP    NE1 7383   9.053   2.617   4.709
    4TRP    HE1 7384   9.138   2.604   4.765
    4TRP    CE2 7385   9.006   2.531   4.615
    4TRP    CZ2 7386   9.049   2.411   4.557
    4TRP    HZ2 7387   9.143   2.360   4.576
    4TRP    CH2 7388   8.964   2.345   4.469
    4TRP    HH2 7389   8.992   2.254   4.419
    4TRP    CZ3 7390   8.832   2.382   4.454
    4TRP    HZ3 7391   8.771   2.326   4.383
    4TRP    CE3 7392   8.780   2.503   4.509
    4TRP    HE3 7393   8.677   2.535   4.494
    4TRP    CD2 7394   8.870   2.582   4.589
    4TRP      C 7395   8.549   2.935   4.751
    4TRP      O 7396   8.434   2.923   4.709
    5PRO      N 7397   8.602   3.052   4.782
    5PRO     CD 7398   8.717   3.062   4.867
    5PRO    HD2 7399   8.808   3.080   4.809
    5PRO    HD3 7400   8.734   2.977   4.935
    5PRO     CG 7401   8.689   3.189   4.953
    5PRO    HG2 7402   8.780   3.235   4.992
    5PRO    HG3 7403   8.628   3.159   5.040
    5PRO     CB 7404   8.620   3.278   4.854
    5PRO    HB2 7405   8.691   3.320   4.781
    5PRO    HB3 7406   8.561   3.348   4.912
    5PRO     CA 7407   8.533   3.180   4.778
    5PRO     HA 7408   8.440   3.169   4.833
    5PRO      C 7409   8.500   3.231   4.636
    5PRO      O 7410   8.567   3.173   4.546
    6TRP      N 7411   8.427   3.338   4.608
    6TRP      H 7412   8.374   3.366   4.689
    6TRP     CA 7413   8.409   3.402   4.471
    6TRP     HA 7414   8.399   3.325   4.394
    6TRP     CB 7415   8.272   3.481   4.476
    6TRP    HB2 7416   8.275   3.546   4.564
    6TRP    HB3 7417   8.253   3.547   4.391
    6TRP     CG 7418   8.144   3.397   4.477
    6TRP    CD1 7419   8.074   3.360   4.588
    6TRP    HD1 7420   8.103   3.400   4.685
    6TRP    NE1 7421   7.967   3.271   4.562
    6TRP    HE1 7422   7.915   3.230   4.637
    6TRP    CE2 7423   7.978   3.234   4.431
    6TRP    CZ2 7424   7.907   3.142   4.352
    6TRP    HZ2 7425   7.839   3.072   4.398
    6TRP    CH2 7426   7.929   3.129   4.216
    6TRP    HH2 7427   7.873   3.051   4.167
    6TRP    CZ3 7428   8.028   3.200   4.148
    6TRP    HZ3 7429   8.050   3.185   4.043
    6TRP    CE3 7430   8.105   3.291   4.229
    6TRP    HE3 7431   8.180   3.353   4.182
    6TRP    CD2 7432   8.080   3.314   4.370
    6TRP      C 7433   8.519   3.489   4.426
    6TRP      O 7434   8.525   3.529   4.308
    7TRP      N 7435   8.613   3.521   4.518
    7TRP      H 7436   8.597   3.482   4.610
    7TRP     CA 7437   8.720   3.620   4.496
    7TRP     HA 7438   8.672   3.706   4.451
    7TRP     CB 7439   8.786   3.651   4.630
    7TRP    HB2 7440   8.875   3.590   4.643
    7TRP    HB3 7441   8.829   3.750   4.619
    7TRP     CG 7442   8.709   3.663   4.760
    7TRP    CD1 7443   8.760   3.658   4.886
    7TRP    HD1 7444   8.866   3.646   4.907
    7TRP    NE1 7445   8.669   3.670   4.986
    7TRP    HE1 7446   8.698   3.659   5.083
    7TRP    CE2 7447   8.545   3.695   4.928
    7TRP    CZ2 7448   8.423   3.722   4.988
    7TRP    HZ2 7449   8.418   3.723   5.097
    7TRP    CH2 7450   8.309   3.739   4.910
    7TRP    HH2 7451   8.216   3.764   4.959
    7TRP    CZ3 7452   8.320   3.732   4.770
    7TRP    HZ3 7453   8.231   3.737   4.707
    7TRP    CE3 7454   8.451   3.722   4.712
    7TRP    HE3 7455   8.466   3.738   4.607
    7TRP    CD2 7456   8.568   3.694   4.788
    7TRP      C 7457   8.815   3.562   4.395
    7TRP      O 7458   8.841   3.441   4.401
    8PRO      N 7459   8.886   3.641   4.311
    8PRO     CD 7460   8.893   3.787   4.311
    8PRO    HD2 7461   8.919   3.825   4.411
    8PRO    HD3 7462   8.797   3.824   4.276
    8PRO     CG 7463   9.011   3.819   4.221
    8PRO    HG2 7464   9.100   3.838   4.281
    8PRO    HG3 7465   8.992   3.911   4.167
    8PRO     CB 7466   9.024   3.698   4.124
    8PRO    HB2 7467   9.129   3.680   4.103
    8PRO    HB3 7468   8.954   3.710   4.040
    8PRO     CA 7469   8.974   3.582   4.207
    8PRO     HA 7470   8.919   3.520   4.137
    8PRO      C 7471   9.092   3.504   4.262
    8PRO      O 7472   9.181   3.564   4.331
    9TRP      N 7473   9.092   3.372   4.231
    9TRP      H 7474   9.015   3.334   4.182
    9TRP     CA 7475   9.202   3.278   4.261
    9TRP     HA 7476   9.299   3.326   4.266
    9TRP     CB 7477   9.165   3.208   4.397
    9TRP    HB2 7478   9.063   3.176   4.383
    9TRP    HB3 7479   9.233   3.122   4.407
    9TRP     CG 7480   9.162   3.297   4.524
    9TRP    CD1 7481   9.061   3.326   4.611
    9TRP    HD1 7482   8.963   3.283   4.612
    9TRP    NE1 7483   9.100   3.415   4.711
    9TRP    HE1 7484   9.046   3.450   4.789
    9TRP    CE2 7485   9.226   3.465   4.684
    9TRP    CZ2 7486   9.315   3.555   4.748
    9TRP    HZ2 7487   9.284   3.606   4.837
    9TRP    CH2 7488   9.448   3.560   4.708
    9TRP    HH2 7489   9.511   3.624   4.768
    9TRP    CZ3 7490   9.490   3.484   4.597
    9TRP    HZ3 7491   9.593   3.497   4.569
    9TRP    CE3 7492   9.401   3.397   4.528
    9TRP    HE3 7493   9.440   3.333   4.451
    9TRP    CD2 7494   9.267   3.390   4.569
    9TRP      C 7495   9.211   3.172   4.150
    9TRP      O 7496   9.119   3.098   4.124
   10ARG      N 7497   9.328   3.163   4.087
   10ARG      H 7498   9.391   3.242   4.101
   10ARG     CA 7499   9.358   3.064   3.993
   10ARG     HA 7500   9.271   3.049   3.930
   10ARG     CB 7501   9.480   3.109   3.916
   10ARG    HB2 7502   9.564   3.126   3.984
   10ARG    HB3 7503   9.511   3.021   3.859
   10ARG     CG 7504   9.465   3.229   3.826
   10ARG    HG2 7505   9.384   3.198   3.758
   10ARG    HG3 7506   9.420   3.316   3.872
   10ARG     CD 7507   9.598   3.265   3.748
   10ARG    HD2 7508   9.577   3.338   3.670
   10ARG    HD3 7509   9.677   3.296   3.818
   10ARG     NE 7510   9.643   3.148   3.666
   10ARG     HE 7511   9.580   3.121   3.593
   10ARG     CZ 7512   9.751   3.073   3.696
   10ARG    NH1 7513   9.798   3.070   3.818
   10ARG   HH11 7514   9.749   3.103   3.901
   10ARG   HH12 7515   9.887   3.024   3.829
   10ARG    NH2 7516   9.810   3.001   3.602
   10ARG   HH21 7517   9.795   3.012   3.504
   10ARG   HH22 7518   9.886   2.942   3.633
   10ARG      C 7519   9.387   2.932   4.064
   10ARG      O 7520   9.449   2.928   4.172
   11ARG      N 7521   9.344   2.815   4.012
   11ARG      H 7522   9.292   2.825   3.926
   11ARG     CA 7523   9.365   2.677   4.058
   11ARG     HA 7524   9.469   2.681   4.093
   11ARG     CB 7525   9.271   2.637   4.182
   11ARG    HB2 7526   9.278   2.529   4.199
   11ARG    HB3 7527   9.301   2.691   4.271
   11ARG     CG 7528   9.121   2.662   4.152
   11ARG    HG2 7529   9.112   2.765   4.122
   11ARG    HG3 7530   9.090   2.604   4.065
   11ARG     CD 7531   9.027   2.642   4.281
   11ARG    HD2 7532   9.015   2.535   4.283
   11ARG    HD3 7533   9.075   2.685   4.368
   11ARG     NE 7534   8.893   2.701   4.253
   11ARG     HE 7535   8.832   2.668   4.178
   11ARG     CZ 7536   8.853   2.815   4.302
   11ARG    NH1 7537   8.915   2.905   4.375
   11ARG   HH11 7538   9.009   2.891   4.413
   11ARG   HH12 7539   8.876   2.997   4.382
   11ARG    NH2 7540   8.733   2.856   4.269
   11ARG   HH21 7541   8.688   2.806   4.194
   11ARG   HH22 7542   8.679   2.920   4.324
   11ARG      C 7543   9.360   2.582   3.940
   11ARG      O 7544   9.276   2.611   3.852
   12LYS      N 7545   9.426   2.467   3.945
   12LYS      H 7546   9.488   2.459   4.024
   12LYS     CA 7547   9.418   2.358   3.844
   12LYS     HA 7548   9.469   2.406   3.762
   12LYS     CB 7549   9.498   2.238   3.903
   12LYS    HB2 7550   9.585   2.270   3.958
   12LYS    HB3 7551   9.438   2.192   3.980
   12LYS     CG 7552   9.552   2.139   3.807
   12LYS    HG2 7553   9.473   2.102   3.741
   12LYS    HG3 7554   9.634   2.183   3.750
   12LYS     CD 7555   9.609   2.021   3.876
   12LYS    HD2 7556   9.695   2.050   3.936
   12LYS    HD3 7557   9.533   1.972   3.938
   12LYS     CE 7558   9.647   1.916   3.763
   12LYS    HE2 7559   9.561   1.897   3.701
   12LYS    HE3 7560   9.724   1.944   3.690
   12LYS     NZ 7561   9.687   1.785   3.821
   12LYS    HZ1 7562   9.780   1.780   3.858
   12LYS    HZ2 7563   9.623   1.748   3.890
   12LYS    HZ3 7564   9.692   1.722   3.741
   12LYS      C 7565   9.282   2.316   3.787
   12LYS      O 7566   9.188   2.303   3.862
   13NHE      N 7567   9.292   2.279   3.657
   13NHE    HN1 7568   9.376   2.292   3.601
   13NHE    HN2 7569   9.214   2.238   3.607
    1ILE      N 7570   5.362   8.983   8.014
    1ILE     H1 7571   5.327   9.016   7.926
    1ILE     H2 7572   5.435   8.912   8.010
    1ILE     H3 7573   5.411   9.067   8.041
    1ILE     CA 7574   5.270   8.956   8.125
    1ILE     HA 7575   5.327   8.959   8.217
    1ILE     CB 7576   5.153   9.064   8.128
    1ILE     HB 7577   5.183   9.169   8.119
    1ILE    CG2 7578   5.065   9.031   8.007
    1ILE   HG21 7579   4.981   8.969   8.034
    1ILE   HG22 7580   5.026   9.120   7.956
    1ILE   HG23 7581   5.120   8.977   7.931
    1ILE    CG1 7582   5.078   9.073   8.264
    1ILE   HG12 7583   5.147   9.069   8.348
    1ILE   HG13 7584   5.008   8.991   8.271
    1ILE    CD1 7585   4.998   9.204   8.280
    1ILE   HD11 7586   4.917   9.213   8.208
    1ILE   HD12 7587   4.940   9.196   8.372
    1ILE   HD13 7588   5.055   9.297   8.282
    1ILE      C 7589   5.224   8.812   8.125
    1ILE      O 7590   5.210   8.755   8.018
    2LEU      N 7591   5.201   8.754   8.244
    2LEU      H 7592   5.213   8.813   8.325
    2LEU     CA 7593   5.121   8.632   8.259
    2LEU     HA 7594   5.094   8.585   8.164
    2LEU     CB 7595   5.200   8.522   8.328
    2LEU    HB2 7596   5.188   8.537   8.435
    2LEU    HB3 7597   5.155   8.426   8.304
    2LEU     CG 7598   5.350   8.511   8.302
    2LEU     HG 7599   5.409   8.596   8.336
    2LEU    CD1 7600   5.409   8.397   8.395
    2LEU   HD11 7601   5.424   8.441   8.494
    2LEU   HD12 7602   5.339   8.313   8.401
    2LEU   HD13 7603   5.503   8.352   8.362
    2LEU    CD2 7604   5.380   8.474   8.161
    2LEU   HD21 7605   5.308   8.398   8.134
    2LEU   HD22 7606   5.352   8.559   8.099
    2LEU   HD23 7607   5.482   8.444   8.140
    2LEU      C 7608   4.989   8.655   8.335
    2LEU      O 7609   4.973   8.749   8.415
    3ARG      N 7610   4.889   8.577   8.298
    3ARG      H 7611   4.908   8.506   8.229
    3ARG     CA 7612   4.749   8.591   8.345
    3ARG     HA 7613   4.749   8.658   8.431
    3ARG     CB 7614   4.655   8.658   8.240
    3ARG    HB2 7615   4.565   8.687   8.294
    3ARG    HB3 7616   4.704   8.752   8.215
    3ARG     CG 7617   4.618   8.580   8.110
    3ARG    HG2 7618   4.705   8.546   8.055
    3ARG    HG3 7619   4.554   8.496   8.136
    3ARG     CD 7620   4.532   8.658   8.012
    3ARG    HD2 7621   4.476   8.584   7.952
    3ARG    HD3 7622   4.450   8.706   8.066
    3ARG     NE 7623   4.602   8.746   7.924
    3ARG     HE 7624   4.640   8.702   7.843
    3ARG     CZ 7625   4.604   8.880   7.933
    3ARG    NH1 7626   4.522   8.949   8.010
    3ARG   HH11 7627   4.478   8.907   8.089
    3ARG   HH12 7628   4.518   9.048   8.011
    3ARG    NH2 7629   4.691   8.943   7.849
    3ARG   HH21 7630   4.746   8.895   7.781
    3ARG   HH22 7631   4.687   9.045   7.848
    3ARG      C 7632   4.687   8.459   8.387
    3ARG      O 7633   4.733   8.352   8.351
    4TRP      N 7634   4.598   8.467   8.486
    4TRP      H 7635   4.560   8.557   8.513
    4TRP     CA 7636   4.542   8.347   8.555
    4TRP     HA 7637   4.556   8.258   8.493
    4TRP     CB 7638   4.624   8.328   8.689
    4TRP    HB2 7639   4.641   8.425   8.738
    4TRP    HB3 7640   4.580   8.252   8.753
    4TRP     CG 7641   4.764   8.280   8.668
    4TRP    CD1 7642   4.800   8.154   8.643
    4TRP    HD1 7643   4.734   8.068   8.632
    4TRP    NE1 7644   4.935   8.145   8.644
    4TRP    HE1 7645   4.983   8.058   8.620
    4TRP    CE2 7646   4.995   8.265   8.666
    4TRP    CZ2 7647   5.127   8.312   8.673
    4TRP    HZ2 7648   5.217   8.254   8.665
    4TRP    CH2 7649   5.148   8.449   8.687
    4TRP    HH2 7650   5.246   8.492   8.696
    4TRP    CZ3 7651   5.044   8.541   8.673
    4TRP    HZ3 7652   5.068   8.646   8.685
    4TRP    CE3 7653   4.908   8.500   8.666
    4TRP    HE3 7654   4.826   8.572   8.660
    4TRP    CD2 7655   4.881   8.359   8.667
    4TRP      C 7656   4.384   8.367   8.590
    4TRP      O 7657   4.335   8.480   8.581
    5PRO      N 7658   4.315   8.264   8.636
    5PRO     CD 7659   4.357   8.129   8.608
    5PRO    HD2 7660   4.408   8.085   8.694
    5PRO    HD3 7661   4.420   8.115   8.518
    5PRO     CG 7662   4.223   8.052   8.586
    5PRO    HG2 7663   4.232   7.945   8.605
    5PRO    HG3 7664   4.193   8.064   8.481
    5PRO     CB 7665   4.133   8.120   8.687
    5PRO    HB2 7666   4.157   8.088   8.789
    5PRO    HB3 7667   4.032   8.104   8.651
    5PRO     CA 7668   4.175   8.265   8.675
    5PRO     HA 7669   4.119   8.310   8.594
    5PRO      C 7670   4.146   8.344   8.805
    5PRO      O 7671   4.249   8.365   8.874
    6TRP      N 7672   4.025   8.368   8.854
    6TRP      H 7673   3.955   8.353   8.782
    6TRP     CA 7674   3.993   8.428   8.990
    6TRP     HA 7675   4.063   8.507   9.014
    6TRP     CB 7676   3.850   8.494   8.977
    6TRP    HB2 7677   3.782   8.420   8.935
    6TRP    HB3 7678   3.805   8.526   9.071
    6TRP     CG 7679   3.841   8.624   8.895
    6TRP    CD1 7680   3.807   8.633   8.764
    6TRP    HD1 7681   3.772   8.544   8.711
    6TRP    NE1 7682   3.820   8.763   8.709
    6TRP    HE1 7683   3.806   8.778   8.610
    6TRP    CE2 7684   3.883   8.838   8.802
    6TRP    CZ2 7685   3.930   8.971   8.803
    6TRP    HZ2 7686   3.936   9.026   8.710
    6TRP    CH2 7687   3.982   9.032   8.915
    6TRP    HH2 7688   4.021   9.131   8.901
    6TRP    CZ3 7689   3.997   8.964   9.037
    6TRP    HZ3 7690   4.043   9.010   9.123
    6TRP    CE3 7691   3.953   8.828   9.037
    6TRP    HE3 7692   3.959   8.771   9.130
    6TRP    CD2 7693   3.892   8.762   8.923
    6TRP      C 7694   3.998   8.334   9.103
    6TRP      O 7695   3.994   8.376   9.220
    7TRP      N 7696   4.008   8.202   9.073
    7TRP      H 7697   4.010   8.182   8.974
    7TRP     CA 7698   3.997   8.094   9.172
    7TRP     HA 7699   3.910   8.118   9.233
    7TRP     CB 7700   3.983   7.961   9.098
    7TRP    HB2 7701   4.079   7.913   9.088
    7TRP    HB3 7702   3.932   7.894   9.167
    7TRP     CG 7703   3.902   7.945   8.970
    7TRP    CD1 7704   3.909   7.842   8.881
    7TRP    HD1 7705   3.976   7.758   8.893
    7TRP    NE1 7706   3.825   7.853   8.774
    7TRP    HE1 7707   3.831   7.785   8.700
    7TRP    CE2 7708   3.746   7.966   8.793
    7TRP    CZ2 7709   3.642   8.013   8.716
    7TRP    HZ2 7710   3.615   7.960   8.625
    7TRP    CH2 7711   3.578   8.133   8.750
    7TRP    HH2 7712   3.494   8.166   8.690
    7TRP    CZ3 7713   3.620   8.201   8.866
    7TRP    HZ3 7714   3.577   8.298   8.890
    7TRP    CE3 7715   3.715   8.139   8.952
    7TRP    HE3 7716   3.733   8.176   9.051
    7TRP    CD2 7717   3.789   8.022   8.915
    7TRP      C 7718   4.119   8.101   9.260
    7TRP      O 7719   4.227   8.128   9.208
    8PRO      N 7720   4.115   8.059   9.389
    8PRO     CD 7721   4.005   7.994   9.458
    8PRO    HD2 7722   3.969   7.907   9.402
    8PRO    HD3 7723   3.926   8.069   9.473
    8PRO     CG 7724   4.066   7.941   9.587
    8PRO    HG2 7725   4.091   7.836   9.574
    8PRO    HG3 7726   3.994   7.946   9.667
    8PRO     CB 7727   4.189   8.032   9.614
    8PRO    HB2 7728   4.268   7.972   9.659
    8PRO    HB3 7729   4.156   8.123   9.666
    8PRO     CA 7730   4.234   8.073   9.476
    8PRO     HA 7731   4.265   8.176   9.487
    8PRO      C 7732   4.353   7.988   9.434
    8PRO      O 7733   4.343   7.861   9.434
    9TRP      N 7734   4.462   8.059   9.398
    9TRP      H 7735   4.458   8.158   9.397
    9TRP     CA 7736   4.595   8.000   9.366
    9TRP     HA 7737   4.613   7.905   9.417
    9TRP     CB 7738   4.600   7.984   9.210
    9TRP    HB2 7739   4.569   8.081   9.174
    9TRP    HB3 7740   4.705   7.963   9.185
    9TRP     CG 7741   4.502   7.883   9.145
    9TRP    CD1 7742   4.402   7.900   9.054
    9TRP    HD1 7743   4.379   7.990   9.002
    9TRP    NE1 7744   4.334   7.782   9.026
    9TRP    HE1 7745   4.259   7.766   8.960
    9TRP    CE2 7746   4.374   7.681   9.113
    9TRP    CZ2 7747   4.342   7.545   9.131
    9TRP    HZ2 7748   4.265   7.500   9.071
    9TRP    CH2 7749   4.423   7.465   9.209
    9TRP    HH2 7750   4.397   7.361   9.211
    9TRP    CZ3 7751   4.530   7.524   9.280
    9TRP    HZ3 7752   4.586   7.456   9.343
    9TRP    CE3 7753   4.561   7.662   9.267
    9TRP    HE3 7754   4.650   7.700   9.314
    9TRP    CD2 7755   4.480   7.743   9.186
    9TRP      C 7756   4.707   8.095   9.412
    9TRP      O 7757   4.717   8.207   9.369
   10ARG      N 7758   4.794   8.045   9.498
   10ARG      H 7759   4.766   7.958   9.544
   10ARG     CA 7760   4.909   8.113   9.540
   10ARG     HA 7761   4.884   8.217   9.557
   10ARG     CB 7762   4.961   8.044   9.665
   10ARG    HB2 7763   4.982   7.938   9.644
   10ARG    HB3 7764   5.060   8.087   9.681
   10ARG     CG 7765   4.876   8.054   9.789
   10ARG    HG2 7766   4.868   8.162   9.805
   10ARG    HG3 7767   4.772   8.027   9.776
   10ARG     CD 7768   4.941   7.981   9.914
   10ARG    HD2 7769   4.888   8.008  10.005
   10ARG    HD3 7770   4.949   7.873   9.897
   10ARG     NE 7771   5.076   8.039   9.943
   10ARG     HE 7772   5.076   8.136   9.969
   10ARG     CZ 7773   5.193   7.974   9.919
   10ARG    NH1 7774   5.197   7.875   9.833
   10ARG   HH11 7775   5.125   7.855   9.763
   10ARG   HH12 7776   5.283   7.823   9.832
   10ARG    NH2 7777   5.303   8.008   9.982
   10ARG   HH21 7778   5.306   8.067  10.063
   10ARG   HH22 7779   5.387   7.959   9.955
   10ARG      C 7780   5.015   8.108   9.430
   10ARG      O 7781   5.032   8.006   9.360
   11ARG      N 7782   5.093   8.215   9.405
   11ARG      H 7783   5.073   8.295   9.464
   11ARG     CA 7784   5.204   8.232   9.311
   11ARG     HA 7785   5.255   8.134   9.318
   11ARG     CB 7786   5.156   8.253   9.159
   11ARG    HB2 7787   5.241   8.283   9.098
   11ARG    HB3 7788   5.112   8.161   9.121
   11ARG     CG 7789   5.055   8.370   9.146
   11ARG    HG2 7790   4.975   8.350   9.216
   11ARG    HG3 7791   5.101   8.463   9.181
   11ARG     CD 7792   4.989   8.381   9.000
   11ARG    HD2 7793   5.066   8.432   8.945
   11ARG    HD3 7794   4.965   8.281   8.964
   11ARG     NE 7795   4.871   8.470   9.006
   11ARG     HE 7796   4.877   8.568   9.032
   11ARG     CZ 7797   4.747   8.428   9.005
   11ARG    NH1 7798   4.698   8.305   9.006
   11ARG   HH11 7799   4.755   8.222   9.000
   11ARG   HH12 7800   4.601   8.293   9.030
   11ARG    NH2 7801   4.653   8.517   9.011
   11ARG   HH21 7802   4.681   8.611   9.036
   11ARG   HH22 7803   4.559   8.502   8.977
   11ARG      C 7804   5.300   8.337   9.362
   11ARG      O 7805   5.248   8.434   9.421
   12LYS      N 7806   5.429   8.332   9.327
   12LYS      H 7807   5.454   8.248   9.279
   12LYS     CA 7808   5.531   8.436   9.358
   12LYS     HA 7809   5.540   8.422   9.464
   12LYS     CB 7810   5.659   8.395   9.281
   12LYS    HB2 7811   5.674   8.288   9.278
   12LYS    HB3 7812   5.645   8.418   9.175
   12LYS     CG 7813   5.789   8.446   9.331
   12LYS    HG2 7814   5.786   8.554   9.343
   12LYS    HG3 7815   5.813   8.396   9.425
   12LYS     CD 7816   5.900   8.416   9.239
   12LYS    HD2 7817   5.915   8.308   9.231
   12LYS    HD3 7818   5.882   8.459   9.141
   12LYS     CE 7819   6.029   8.489   9.296
   12LYS    HE2 7820   6.006   8.595   9.310
   12LYS    HE3 7821   6.067   8.460   9.394
   12LYS     NZ 7822   6.143   8.484   9.201
   12LYS    HZ1 7823   6.193   8.396   9.199
   12LYS    HZ2 7824   6.121   8.510   9.106
   12LYS    HZ3 7825   6.212   8.548   9.240
   12LYS      C 7826   5.497   8.584   9.340
   12LYS      O 7827   5.436   8.620   9.242
   13NHE      N 7828   5.558   8.661   9.434
   13NHE    HN1 7829   5.608   8.623   9.513
   13NHE    HN2 7830   5.555   8.762   9.430
    1ILE      N 7831   1.105   0.763   4.271
    1ILE     H1 7832   1.097   0.730   4.365
    1ILE     H2 7833   1.064   0.704   4.198
    1ILE     H3 7834   1.042   0.841   4.278
    1ILE     CA 7835   1.231   0.822   4.224
    1ILE     HA 7836   1.208   0.883   4.137
    1ILE     CB 7837   1.297   0.910   4.338
    1ILE     HB 7838   1.231   0.980   4.391
    1ILE    CG2 7839   1.348   0.809   4.443
    1ILE   HG21 7840   1.453   0.785   4.428
    1ILE   HG22 7841   1.336   0.843   4.546
    1ILE   HG23 7842   1.294   0.715   4.436
    1ILE    CG1 7843   1.404   1.012   4.288
    1ILE   HG12 7844   1.371   1.062   4.197
    1ILE   HG13 7845   1.497   0.960   4.269
    1ILE    CD1 7846   1.434   1.124   4.390
    1ILE   HD11 7847   1.479   1.087   4.481
    1ILE   HD12 7848   1.516   1.183   4.350
    1ILE   HD13 7849   1.351   1.191   4.415
    1ILE      C 7850   1.322   0.718   4.163
    1ILE      O 7851   1.320   0.605   4.209
    2LEU      N 7852   1.400   0.756   4.060
    2LEU      H 7853   1.394   0.853   4.034
    2LEU     CA 7854   1.518   0.680   4.017
    2LEU     HA 7855   1.528   0.583   4.067
    2LEU     CB 7856   1.509   0.640   3.871
    2LEU    HB2 7857   1.548   0.724   3.814
    2LEU    HB3 7858   1.575   0.555   3.853
    2LEU     CG 7859   1.372   0.607   3.812
    2LEU     HG 7860   1.301   0.690   3.810
    2LEU    CD1 7861   1.389   0.582   3.656
    2LEU   HD11 7862   1.392   0.680   3.608
    2LEU   HD12 7863   1.482   0.528   3.637
    2LEU   HD13 7864   1.311   0.521   3.609
    2LEU    CD2 7865   1.313   0.484   3.871
    2LEU   HD21 7866   1.395   0.412   3.879
    2LEU   HD22 7867   1.289   0.506   3.975
    2LEU   HD23 7868   1.227   0.442   3.820
    2LEU      C 7869   1.651   0.754   4.042
    2LEU      O 7870   1.657   0.878   4.050
    3ARG      N 7871   1.754   0.677   4.069
    3ARG      H 7872   1.740   0.577   4.065
    3ARG     CA 7873   1.888   0.726   4.111
    3ARG     HA 7874   1.892   0.834   4.092
    3ARG     CB 7875   1.914   0.710   4.264
    3ARG    HB2 7876   2.000   0.773   4.287
    3ARG    HB3 7877   1.830   0.761   4.312
    3ARG     CG 7878   1.933   0.567   4.324
    3ARG    HG2 7879   1.851   0.501   4.300
    3ARG    HG3 7880   2.027   0.526   4.288
    3ARG     CD 7881   1.950   0.564   4.475
    3ARG    HD2 7882   2.006   0.472   4.498
    3ARG    HD3 7883   2.023   0.640   4.504
    3ARG     NE 7884   1.830   0.567   4.551
    3ARG     HE 7885   1.786   0.478   4.562
    3ARG     CZ 7886   1.783   0.672   4.621
    3ARG    NH1 7887   1.856   0.778   4.648
    3ARG   HH11 7888   1.935   0.803   4.592
    3ARG   HH12 7889   1.826   0.853   4.706
    3ARG    NH2 7890   1.659   0.658   4.673
    3ARG   HH21 7891   1.605   0.573   4.666
    3ARG   HH22 7892   1.627   0.733   4.734
    3ARG      C 7893   2.001   0.661   4.036
    3ARG      O 7894   1.987   0.554   3.977
    4TRP      N 7895   2.109   0.737   4.016
    4TRP      H 7896   2.120   0.823   4.067
    4TRP     CA 7897   2.222   0.697   3.927
    4TRP     HA 7898   2.221   0.589   3.911
    4TRP     CB 7899   2.198   0.769   3.788
    4TRP    HB2 7900   2.166   0.872   3.802
    4TRP    HB3 7901   2.284   0.757   3.722
    4TRP     CG 7902   2.085   0.712   3.708
    4TRP    CD1 7903   2.090   0.600   3.636
    4TRP    HD1 7904   2.175   0.533   3.625
    4TRP    NE1 7905   1.974   0.587   3.567
    4TRP    HE1 7906   1.955   0.504   3.510
    4TRP    CE2 7907   1.886   0.687   3.593
    4TRP    CZ2 7908   1.756   0.720   3.554
    4TRP    HZ2 7909   1.694   0.667   3.483
    4TRP    CH2 7910   1.694   0.830   3.613
    4TRP    HH2 7911   1.595   0.863   3.586
    4TRP    CZ3 7912   1.749   0.893   3.724
    4TRP    HZ3 7913   1.695   0.979   3.765
    4TRP    CE3 7914   1.881   0.866   3.769
    4TRP    HE3 7915   1.927   0.919   3.853
    4TRP    CD2 7916   1.954   0.763   3.700
    4TRP      C 7917   2.366   0.744   3.990
    4TRP      O 7918   2.366   0.823   4.083
    5PRO      N 7919   2.477   0.702   3.931
    5PRO     CD 7920   2.478   0.581   3.852
    5PRO    HD2 7921   2.476   0.603   3.746
    5PRO    HD3 7922   2.399   0.508   3.875
    5PRO     CG 7923   2.616   0.517   3.886
    5PRO    HG2 7924   2.652   0.450   3.808
    5PRO    HG3 7925   2.605   0.457   3.977
    5PRO     CB 7926   2.703   0.639   3.899
    5PRO    HB2 7927   2.727   0.682   3.801
    5PRO    HB3 7928   2.787   0.608   3.962
    5PRO     CA 7929   2.612   0.736   3.971
    5PRO     HA 7930   2.621   0.718   4.078
    5PRO      C 7931   2.652   0.883   3.943
    5PRO      O 7932   2.575   0.939   3.860
    6TRP      N 7933   2.765   0.940   3.981
    6TRP      H 7934   2.809   0.884   4.053
    6TRP     CA 7935   2.816   1.077   3.939
    6TRP     HA 7936   2.734   1.149   3.936
    6TRP     CB 7937   2.915   1.125   4.053
    6TRP    HB2 7938   2.988   1.045   4.070
    6TRP    HB3 7939   2.973   1.214   4.030
    6TRP     CG 7940   2.851   1.167   4.186
    6TRP    CD1 7941   2.837   1.087   4.296
    6TRP    HD1 7942   2.882   0.988   4.296
    6TRP    NE1 7943   2.762   1.146   4.401
    6TRP    HE1 7944   2.737   1.092   4.482
    6TRP    CE2 7945   2.710   1.261   4.352
    6TRP    CZ2 7946   2.622   1.357   4.406
    6TRP    HZ2 7947   2.568   1.335   4.497
    6TRP    CH2 7948   2.591   1.475   4.341
    6TRP    HH2 7949   2.517   1.537   4.390
    6TRP    CZ3 7950   2.640   1.505   4.213
    6TRP    HZ3 7951   2.611   1.595   4.160
    6TRP    CE3 7952   2.726   1.407   4.155
    6TRP    HE3 7953   2.771   1.426   4.058
    6TRP    CD2 7954   2.767   1.285   4.223
    6TRP      C 7955   2.880   1.083   3.807
    6TRP      O 7956   2.906   1.193   3.754
    7TRP      N 7957   2.908   0.965   3.747
    7TRP      H 7958   2.882   0.884   3.801
    7TRP     CA 7959   2.987   0.952   3.624
    7TRP     HA 7960   3.074   1.015   3.636
    7TRP     CB 7961   3.022   0.804   3.603
    7TRP    HB2 7962   2.950   0.757   3.537
    7TRP    HB3 7963   3.112   0.804   3.542
    7TRP     CG 7964   3.059   0.711   3.718
    7TRP    CD1 7965   3.060   0.575   3.715
    7TRP    HD1 7966   3.034   0.518   3.627
    7TRP    NE1 7967   3.096   0.516   3.832
    7TRP    HE1 7968   3.091   0.415   3.840
    7TRP    CE2 7969   3.133   0.616   3.921
    7TRP    CZ2 7970   3.184   0.604   4.049
    7TRP    HZ2 7971   3.197   0.505   4.092
    7TRP    CH2 7972   3.209   0.720   4.125
    7TRP    HH2 7973   3.252   0.708   4.223
    7TRP    CZ3 7974   3.185   0.846   4.067
    7TRP    HZ3 7975   3.197   0.936   4.126
    7TRP    CE3 7976   3.150   0.852   3.928
    7TRP    HE3 7977   3.152   0.946   3.875
    7TRP    CD2 7978   3.113   0.737   3.852
    7TRP      C 7979   2.905   1.009   3.511
    7TRP      O 7980   2.783   0.989   3.510
    8PRO      N 7981   2.964   1.066   3.402
    8PRO     CD 7982   3.106   1.069   3.370
    8PRO    HD2 7983   3.150   0.969   3.374
    8PRO    HD3 7984   3.153   1.138   3.440
    8PRO     CG 7985   3.111   1.113   3.225
    8PRO    HG2 7986   3.122   1.025   3.161
    8PRO    HG3 7987   3.198   1.174   3.207
    8PRO     CB 7988   2.979   1.192   3.201
    8PRO    HB2 7989   2.944   1.174   3.099
    8PRO    HB3 7990   2.992   1.296   3.234
    8PRO     CA 7991   2.881   1.127   3.296
    8PRO     HA 7992   2.821   1.210   3.333
    8PRO      C 7993   2.793   1.030   3.220
    8PRO      O 7994   2.846   0.937   3.151
    9TRP      N 7995   2.660   1.053   3.233
    9TRP      H 7996   2.629   1.126   3.293
    9TRP     CA 7997   2.554   0.981   3.158
    9TRP     HA 7998   2.588   0.944   3.061
    9TRP     CB 7999   2.506   0.864   3.251
    9TRP    HB2 8000   2.487   0.913   3.346
    9TRP    HB3 8001   2.412   0.827   3.208
    9TRP     CG 8002   2.607   0.752   3.283
    9TRP    CD1 8003   2.660   0.708   3.401
    9TRP    HD1 8004   2.632   0.741   3.499
    9TRP    NE1 8005   2.752   0.605   3.384
    9TRP    HE1 8006   2.802   0.554   3.454
    9TRP    CE2 8007   2.780   0.587   3.249
    9TRP    CZ2 8008   2.861   0.500   3.174
    9TRP    HZ2 8009   2.926   0.431   3.224
    9TRP    CH2 8010   2.842   0.489   3.037
    9TRP    HH2 8011   2.902   0.414   2.988
    9TRP    CZ3 8012   2.750   0.574   2.973
    9TRP    HZ3 8013   2.744   0.563   2.866
    9TRP    CE3 8014   2.670   0.666   3.046
    9TRP    HE3 8015   2.593   0.722   2.995
    9TRP    CD2 8016   2.688   0.676   3.185
    9TRP      C 8017   2.437   1.076   3.129
    9TRP      O 8018   2.375   1.130   3.218
   10ARG      N 8019   2.404   1.093   3.002
   10ARG      H 8020   2.474   1.061   2.934
   10ARG     CA 8021   2.292   1.165   2.959
   10ARG     HA 8022   2.284   1.255   3.020
   10ARG     CB 8023   2.310   1.195   2.811
   10ARG    HB2 8024   2.322   1.102   2.755
   10ARG    HB3 8025   2.213   1.233   2.779
   10ARG     CG 8026   2.421   1.290   2.773
   10ARG    HG2 8027   2.395   1.381   2.829
   10ARG    HG3 8028   2.518   1.267   2.815
   10ARG     CD 8029   2.429   1.316   2.618
   10ARG    HD2 8030   2.495   1.400   2.597
   10ARG    HD3 8031   2.455   1.224   2.563
   10ARG     NE 8032   2.299   1.371   2.568
   10ARG     HE 8033   2.273   1.461   2.606
   10ARG     CZ 8034   2.211   1.301   2.492
   10ARG    NH1 8035   2.215   1.170   2.492
   10ARG   HH11 8036   2.263   1.113   2.560
   10ARG   HH12 8037   2.157   1.126   2.422
   10ARG    NH2 8038   2.122   1.364   2.418
   10ARG   HH21 8039   2.124   1.461   2.396
   10ARG   HH22 8040   2.057   1.305   2.369
   10ARG      C 8041   2.166   1.082   2.980
   10ARG      O 8042   2.165   0.959   2.961
   11ARG      N 8043   2.052   1.141   3.022
   11ARG      H 8044   2.060   1.240   3.039
   11ARG     CA 8045   1.918   1.084   3.043
   11ARG     HA 8046   1.910   1.014   2.959
   11ARG     CB 8047   1.905   1.001   3.179
   11ARG    HB2 8048   1.800   0.978   3.198
   11ARG    HB3 8049   1.964   0.909   3.173
   11ARG     CG 8050   1.949   1.083   3.303
   11ARG    HG2 8051   2.049   1.120   3.282
   11ARG    HG3 8052   1.888   1.173   3.311
   11ARG     CD 8053   1.957   0.997   3.438
   11ARG    HD2 8054   1.854   0.994   3.468
   11ARG    HD3 8055   2.002   0.900   3.416
   11ARG     NE 8056   2.032   1.074   3.541
   11ARG     HE 8057   2.001   1.163   3.577
   11ARG     CZ 8058   2.156   1.048   3.575
   11ARG    NH1 8059   2.242   0.961   3.527
   11ARG   HH11 8060   2.219   0.892   3.457
   11ARG   HH12 8061   2.339   0.973   3.549
   11ARG    NH2 8062   2.209   1.123   3.667
   11ARG   HH21 8063   2.160   1.207   3.691
   11ARG   HH22 8064   2.287   1.094   3.725
   11ARG      C 8065   1.813   1.191   3.024
   11ARG      O 8066   1.844   1.305   3.065
   12LYS      N 8067   1.690   1.158   2.984
   12LYS      H 8068   1.682   1.062   2.956
   12LYS     CA 8069   1.574   1.250   2.976
   12LYS     HA 8070   1.605   1.310   2.892
   12LYS     CB 8071   1.450   1.161   2.944
   12LYS    HB2 8072   1.474   1.079   2.877
   12LYS    HB3 8073   1.422   1.108   3.034
   12LYS     CG 8074   1.334   1.226   2.878
   12LYS    HG2 8075   1.303   1.314   2.934
   12LYS    HG3 8076   1.360   1.251   2.775
   12LYS     CD 8077   1.217   1.136   2.871
   12LYS    HD2 8078   1.240   1.050   2.807
   12LYS    HD3 8079   1.187   1.103   2.970
   12LYS     CE 8080   1.096   1.222   2.815
   12LYS    HE2 8081   1.084   1.310   2.876
   12LYS    HE3 8082   1.104   1.264   2.714
   12LYS     NZ 8083   0.968   1.148   2.822
   12LYS    HZ1 8084   0.953   1.079   2.749
   12LYS    HZ2 8085   0.948   1.105   2.910
   12LYS    HZ3 8086   0.897   1.218   2.800
   12LYS      C 8087   1.546   1.349   3.089
   12LYS      O 8088   1.556   1.313   3.204
   13NHE      N 8089   1.495   1.466   3.042
   13NHE    HN1 8090   1.490   1.488   2.942
   13NHE    HN2 8091   1.461   1.538   3.103
    1ILE      N 8092   4.399  10.988   5.288
    1ILE     H1 8093   4.421  11.046   5.367
    1ILE     H2 8094   4.300  10.982   5.262
    1ILE     H3 8095   4.440  11.046   5.217
    1ILE     CA 8096   4.465  10.857   5.272
    1ILE     HA 8097   4.457  10.830   5.167
    1ILE     CB 8098   4.617  10.865   5.317
    1ILE     HB 8099   4.674  10.950   5.280
    1ILE    CG2 8100   4.612  10.879   5.470
    1ILE   HG21 8101   4.623  10.782   5.519
    1ILE   HG22 8102   4.689  10.946   5.511
    1ILE   HG23 8103   4.517  10.918   5.504
    1ILE    CG1 8104   4.706  10.750   5.264
    1ILE   HG12 8105   4.684  10.728   5.159
    1ILE   HG13 8106   4.689  10.661   5.323
    1ILE    CD1 8107   4.857  10.782   5.270
    1ILE   HD11 8108   4.893  10.793   5.372
    1ILE   HD12 8109   4.910  10.691   5.242
    1ILE   HD13 8110   4.892  10.865   5.210
    1ILE      C 8111   4.384  10.746   5.337
    1ILE      O 8112   4.321  10.772   5.437
    2LEU      N 8113   4.387  10.626   5.278
    2LEU      H 8114   4.445  10.618   5.197
    2LEU     CA 8115   4.347  10.503   5.347
    2LEU     HA 8116   4.303  10.520   5.446
    2LEU     CB 8117   4.236  10.430   5.274
    2LEU    HB2 8118   4.284  10.367   5.199
    2LEU    HB3 8119   4.184  10.364   5.343
    2LEU     CG 8120   4.130  10.512   5.200
    2LEU     HG 8121   4.168  10.571   5.117
    2LEU    CD1 8122   4.035  10.413   5.122
    2LEU   HD11 8123   4.086  10.386   5.029
    2LEU   HD12 8124   4.016  10.324   5.183
    2LEU   HD13 8125   3.935  10.451   5.098
    2LEU    CD2 8126   4.046  10.592   5.293
    2LEU   HD21 8127   4.025  10.528   5.378
    2LEU   HD22 8128   4.110  10.669   5.336
    2LEU   HD23 8129   3.956  10.636   5.251
    2LEU      C 8130   4.465  10.405   5.370
    2LEU      O 8131   4.567  10.406   5.299
    3ARG      N 8132   4.457  10.333   5.480
    3ARG      H 8133   4.372  10.341   5.535
    3ARG     CA 8134   4.564  10.244   5.531
    3ARG     HA 8135   4.638  10.232   5.451
    3ARG     CB 8136   4.643  10.305   5.651
    3ARG    HB2 8137   4.733  10.246   5.662
    3ARG    HB3 8138   4.677  10.403   5.616
    3ARG     CG 8139   4.571  10.320   5.789
    3ARG    HG2 8140   4.478  10.376   5.782
    3ARG    HG3 8141   4.553  10.222   5.831
    3ARG     CD 8142   4.654  10.388   5.897
    3ARG    HD2 8143   4.616  10.353   5.994
    3ARG    HD3 8144   4.754  10.344   5.897
    3ARG     NE 8145   4.655  10.531   5.895
    3ARG     HE 8146   4.576  10.572   5.940
    3ARG     CZ 8147   4.756  10.609   5.854
    3ARG    NH1 8148   4.878  10.564   5.833
    3ARG   HH11 8149   4.895  10.467   5.814
    3ARG   HH12 8150   4.956  10.622   5.811
    3ARG    NH2 8151   4.728  10.742   5.845
    3ARG   HH21 8152   4.640  10.781   5.872
    3ARG   HH22 8153   4.807  10.803   5.824
    3ARG      C 8154   4.514  10.107   5.571
    3ARG      O 8155   4.396  10.086   5.595
    4TRP      N 8156   4.600  10.007   5.554
    4TRP      H 8157   4.698  10.027   5.537
    4TRP     CA 8158   4.564   9.863   5.568
    4TRP     HA 8159   4.471   9.855   5.626
    4TRP     CB 8160   4.536   9.808   5.422
    4TRP    HB2 8161   4.612   9.844   5.352
    4TRP    HB3 8162   4.522   9.700   5.422
    4TRP     CG 8163   4.410   9.859   5.360
    4TRP    CD1 8164   4.287   9.814   5.387
    4TRP    HD1 8165   4.259   9.737   5.458
    4TRP    NE1 8166   4.198   9.874   5.302
    4TRP    HE1 8167   4.098   9.858   5.311
    4TRP    CE2 8168   4.259   9.963   5.219
    4TRP    CZ2 8169   4.217  10.051   5.119
    4TRP    HZ2 8170   4.116  10.064   5.081
    4TRP    CH2 8171   4.311  10.137   5.062
    4TRP    HH2 8172   4.287  10.205   4.982
    4TRP    CZ3 8173   4.438  10.152   5.115
    4TRP    HZ3 8174   4.506  10.220   5.066
    4TRP    CE3 8175   4.488  10.065   5.217
    4TRP    HE3 8176   4.589  10.073   5.256
    4TRP    CD2 8177   4.398   9.965   5.268
    4TRP      C 8178   4.683   9.778   5.638
    4TRP      O 8179   4.794   9.829   5.649
    5PRO      N 8180   4.659   9.652   5.673
    5PRO     CD 8181   4.525   9.607   5.699
    5PRO    HD2 8182   4.485   9.551   5.616
    5PRO    HD3 8183   4.453   9.685   5.729
    5PRO     CG 8184   4.543   9.509   5.820
    5PRO    HG2 8185   4.462   9.435   5.826
    5PRO    HG3 8186   4.541   9.567   5.912
    5PRO     CB 8187   4.674   9.444   5.787
    5PRO    HB2 8188   4.664   9.372   5.705
    5PRO    HB3 8189   4.714   9.407   5.881
    5PRO     CA 8190   4.755   9.561   5.733
    5PRO     HA 8191   4.801   9.611   5.817
    5PRO      C 8192   4.867   9.514   5.638
    5PRO      O 8193   4.839   9.534   5.516
    6TRP      N 8194   4.972   9.440   5.672
    6TRP      H 8195   4.983   9.442   5.773
    6TRP     CA 8196   5.073   9.376   5.579
    6TRP     HA 8197   5.097   9.444   5.497
    6TRP     CB 8198   5.205   9.356   5.663
    6TRP    HB2 8199   5.179   9.303   5.755
    6TRP    HB3 8200   5.282   9.296   5.615
    6TRP     CG 8201   5.285   9.483   5.697
    6TRP    CD1 8202   5.277   9.553   5.812
    6TRP    HD1 8203   5.217   9.514   5.895
    6TRP    NE1 8204   5.352   9.674   5.813
    6TRP    HE1 8205   5.345   9.738   5.890
    6TRP    CE2 8206   5.396   9.693   5.686
    6TRP    CZ2 8207   5.467   9.796   5.623
    6TRP    HZ2 8208   5.480   9.891   5.674
    6TRP    CH2 8209   5.512   9.789   5.493
    6TRP    HH2 8210   5.559   9.877   5.454
    6TRP    CZ3 8211   5.485   9.679   5.410
    6TRP    HZ3 8212   5.515   9.675   5.307
    6TRP    CE3 8213   5.410   9.573   5.471
    6TRP    HE3 8214   5.389   9.483   5.414
    6TRP    CD2 8215   5.366   9.575   5.610
    6TRP      C 8216   5.030   9.251   5.516
    6TRP      O 8217   5.096   9.201   5.422
    7TRP      N 8218   4.917   9.193   5.563
    7TRP      H 8219   4.874   9.243   5.639
    7TRP     CA 8220   4.870   9.060   5.524
    7TRP     HA 8221   4.956   8.994   5.528
    7TRP     CB 8222   4.758   9.017   5.620
    7TRP    HB2 8223   4.661   9.041   5.577
    7TRP    HB3 8224   4.757   8.909   5.618
    7TRP     CG 8225   4.760   9.048   5.769
    7TRP    CD1 8226   4.654   9.044   5.854
    7TRP    HD1 8227   4.554   9.017   5.823
    7TRP    NE1 8228   4.683   9.076   5.983
    7TRP    HE1 8229   4.608   9.084   6.051
    7TRP    CE2 8230   4.821   9.096   5.993
    7TRP    CZ2 8231   4.898   9.123   6.104
    7TRP    HZ2 8232   4.850   9.134   6.200
    7TRP    CH2 8233   5.036   9.144   6.090
    7TRP    HH2 8234   5.095   9.161   6.179
    7TRP    CZ3 8235   5.094   9.134   5.962
    7TRP    HZ3 8236   5.199   9.157   5.948
    7TRP    CE3 8237   5.013   9.088   5.853
    7TRP    HE3 8238   5.057   9.058   5.760
    7TRP    CD2 8239   4.871   9.076   5.862
    7TRP      C 8240   4.825   9.068   5.381
    7TRP      O 8241   4.766   9.169   5.343
    8PRO      N 8242   4.832   8.960   5.298
    8PRO     CD 8243   4.868   8.823   5.334
    8PRO    HD2 8244   4.808   8.787   5.419
    8PRO    HD3 8245   4.975   8.822   5.355
    8PRO     CG 8246   4.826   8.740   5.214
    8PRO    HG2 8247   4.729   8.695   5.233
    8PRO    HG3 8248   4.895   8.658   5.200
    8PRO     CB 8249   4.828   8.838   5.093
    8PRO    HB2 8250   4.747   8.812   5.025
    8PRO    HB3 8251   4.930   8.847   5.054
    8PRO     CA 8252   4.793   8.972   5.156
    8PRO     HA 8253   4.855   9.043   5.103
    8PRO      C 8254   4.647   9.003   5.132
    8PRO      O 8255   4.558   8.920   5.169
    9TRP      N 8256   4.624   9.122   5.071
    9TRP      H 8257   4.701   9.182   5.051
    9TRP     CA 8258   4.492   9.169   5.025
    9TRP     HA 8259   4.424   9.088   4.999
    9TRP     CB 8260   4.434   9.259   5.140
    9TRP    HB2 8261   4.515   9.327   5.163
    9TRP    HB3 8262   4.349   9.314   5.097
    9TRP     CG 8263   4.400   9.191   5.274
    9TRP    CD1 8264   4.448   9.210   5.400
    9TRP    HD1 8265   4.515   9.287   5.431
    9TRP    NE1 8266   4.392   9.122   5.493
    9TRP    HE1 8267   4.408   9.117   5.593
    9TRP    CE2 8268   4.317   9.025   5.429
    9TRP    CZ2 8269   4.239   8.915   5.469
    9TRP    HZ2 8270   4.235   8.887   5.573
    9TRP    CH2 8271   4.151   8.856   5.379
    9TRP    HH2 8272   4.089   8.778   5.420
    9TRP    CZ3 8273   4.150   8.900   5.245
    9TRP    HZ3 8274   4.083   8.846   5.180
    9TRP    CE3 8275   4.231   9.007   5.201
    9TRP    HE3 8276   4.219   9.045   5.101
    9TRP    CD2 8277   4.319   9.069   5.292
    9TRP      C 8278   4.508   9.253   4.897
    9TRP      O 8279   4.574   9.354   4.894
   10ARG      N 8280   4.441   9.211   4.790
   10ARG      H 8281   4.406   9.116   4.795
   10ARG     CA 8282   4.434   9.283   4.670
   10ARG     HA 8283   4.532   9.324   4.649
   10ARG     CB 8284   4.385   9.187   4.563
   10ARG    HB2 8285   4.288   9.146   4.590
   10ARG    HB3 8286   4.363   9.252   4.477
   10ARG     CG 8287   4.478   9.075   4.523
   10ARG    HG2 8288   4.568   9.128   4.490
   10ARG    HG3 8289   4.517   9.016   4.605
   10ARG     CD 8290   4.418   8.984   4.408
   10ARG    HD2 8291   4.495   8.918   4.369
   10ARG    HD3 8292   4.328   8.931   4.442
   10ARG     NE 8293   4.388   9.067   4.287
   10ARG     HE 8294   4.468   9.109   4.244
   10ARG     CZ 8295   4.263   9.098   4.247
   10ARG    NH1 8296   4.163   9.093   4.331
   10ARG   HH11 8297   4.172   9.089   4.432
   10ARG   HH12 8298   4.071   9.103   4.290
   10ARG    NH2 8299   4.239   9.133   4.121
   10ARG   HH21 8300   4.303   9.120   4.046
   10ARG   HH22 8301   4.145   9.160   4.100
   10ARG      C 8302   4.337   9.399   4.684
   10ARG      O 8303   4.232   9.388   4.750
   11ARG      N 8304   4.364   9.518   4.627
   11ARG      H 8305   4.452   9.521   4.578
   11ARG     CA 8306   4.284   9.641   4.622
   11ARG     HA 8307   4.182   9.601   4.608
   11ARG     CB 8308   4.287   9.725   4.758
   11ARG    HB2 8309   4.242   9.824   4.742
   11ARG    HB3 8310   4.234   9.672   4.837
   11ARG     CG 8311   4.432   9.757   4.804
   11ARG    HG2 8312   4.485   9.662   4.808
   11ARG    HG3 8313   4.484   9.814   4.726
   11ARG     CD 8314   4.440   9.823   4.950
   11ARG    HD2 8315   4.417   9.926   4.929
   11ARG    HD3 8316   4.370   9.772   5.016
   11ARG     NE 8317   4.580   9.817   4.998
   11ARG     HE 8318   4.657   9.864   4.952
   11ARG     CZ 8319   4.622   9.731   5.088
   11ARG    NH1 8320   4.561   9.632   5.148
   11ARG   HH11 8321   4.462   9.612   5.137
   11ARG   HH12 8322   4.616   9.563   5.195
   11ARG    NH2 8323   4.748   9.737   5.122
   11ARG   HH21 8324   4.808   9.793   5.063
   11ARG   HH22 8325   4.784   9.703   5.210
   11ARG      C 8326   4.318   9.720   4.497
   11ARG      O 8327   4.439   9.718   4.464
   12LYS      N 8328   4.228   9.801   4.442
   12LYS      H 8329   4.136   9.792   4.482
   12LYS     CA 8330   4.253   9.895   4.330
   12LYS     HA 8331   4.266   9.824   4.250
   12LYS     CB 8332   4.123   9.980   4.315
   12LYS    HB2 8333   4.034   9.923   4.334
   12LYS    HB3 8334   4.121  10.053   4.396
   12LYS     CG 8335   4.098  10.043   4.183
   12LYS    HG2 8336   4.184  10.100   4.150
   12LYS    HG3 8337   4.071   9.965   4.110
   12LYS     CD 8338   3.983  10.135   4.188
   12LYS    HD2 8339   3.891  10.081   4.210
   12LYS    HD3 8340   4.000  10.214   4.260
   12LYS     CE 8341   3.976  10.207   4.046
   12LYS    HE2 8342   4.073  10.252   4.024
   12LYS    HE3 8343   3.958  10.146   3.957
   12LYS     NZ 8344   3.877  10.318   4.045
   12LYS    HZ1 8345   3.781  10.290   4.035
   12LYS    HZ2 8346   3.884  10.382   4.122
   12LYS    HZ3 8347   3.894  10.366   3.957
   12LYS      C 8348   4.380   9.981   4.328
   12LYS      O 8349   4.416  10.035   4.430
   13NHE      N 8350   4.426   9.999   4.202
   13NHE    HN1 8351   4.389   9.950   4.121
   13NHE    HN2 8352   4.502  10.062   4.182
    1ILE      N 8353   2.405   0.596   6.824
    1ILE     H1 8354   2.344   0.540   6.881
    1ILE     H2 8355   2.496   0.619   6.864
    1ILE     H3 8356   2.425   0.527   6.753
    1ILE     CA 8357   2.351   0.711   6.749
    1ILE     HA 8358   2.421   0.732   6.669
    1ILE     CB 8359   2.207   0.677   6.691
    1ILE     HB 8360   2.196   0.581   6.641
    1ILE    CG2 8361   2.114   0.675   6.814
    1ILE   HG21 8362   2.065   0.771   6.828
    1ILE   HG22 8363   2.037   0.597   6.809
    1ILE   HG23 8364   2.170   0.656   6.905
    1ILE    CG1 8365   2.161   0.770   6.575
    1ILE   HG12 8366   2.243   0.789   6.505
    1ILE   HG13 8367   2.128   0.864   6.616
    1ILE    CD1 8368   2.045   0.711   6.492
    1ILE   HD11 8369   1.954   0.700   6.550
    1ILE   HD12 8370   2.013   0.788   6.422
    1ILE   HD13 8371   2.065   0.619   6.439
    1ILE      C 8372   2.360   0.839   6.829
    1ILE      O 8373   2.347   0.832   6.950
    2LEU      N 8374   2.383   0.952   6.762
    2LEU      H 8375   2.389   0.944   6.662
    2LEU     CA 8376   2.356   1.085   6.819
    2LEU     HA 8377   2.329   1.083   6.925
    2LEU     CB 8378   2.480   1.172   6.820
    2LEU    HB2 8379   2.485   1.220   6.721
    2LEU    HB3 8380   2.468   1.251   6.893
    2LEU     CG 8381   2.616   1.107   6.842
    2LEU     HG 8382   2.647   1.036   6.765
    2LEU    CD1 8383   2.729   1.217   6.824
    2LEU   HD11 8384   2.746   1.228   6.717
    2LEU   HD12 8385   2.695   1.312   6.868
    2LEU   HD13 8386   2.824   1.196   6.874
    2LEU    CD2 8387   2.630   1.050   6.979
    2LEU   HD21 8388   2.585   1.123   7.046
    2LEU   HD22 8389   2.561   0.965   6.985
    2LEU   HD23 8390   2.730   1.021   7.010
    2LEU      C 8391   2.242   1.160   6.748
    2LEU      O 8392   2.209   1.136   6.630
    3ARG      N 8393   2.170   1.239   6.825
    3ARG      H 8394   2.200   1.251   6.921
    3ARG     CA 8395   2.046   1.310   6.782
    3ARG     HA 8396   2.039   1.303   6.673
    3ARG     CB 8397   1.916   1.243   6.836
    3ARG    HB2 8398   1.834   1.285   6.778
    3ARG    HB3 8399   1.923   1.139   6.805
    3ARG     CG 8400   1.885   1.250   6.989
    3ARG    HG2 8401   1.966   1.213   7.051
    3ARG    HG3 8402   1.861   1.353   7.016
    3ARG     CD 8403   1.759   1.175   7.032
    3ARG    HD2 8404   1.723   1.223   7.124
    3ARG    HD3 8405   1.678   1.200   6.963
    3ARG     NE 8406   1.775   1.036   7.054
    3ARG     HE 8407   1.810   1.012   7.145
    3ARG     CZ 8408   1.732   0.937   6.974
    3ARG    NH1 8409   1.647   0.957   6.874
    3ARG   HH11 8410   1.637   1.048   6.832
    3ARG   HH12 8411   1.608   0.884   6.819
    3ARG    NH2 8412   1.772   0.812   7.006
    3ARG   HH21 8413   1.826   0.791   7.088
    3ARG   HH22 8414   1.732   0.736   6.951
    3ARG      C 8415   2.045   1.456   6.821
    3ARG      O 8416   2.118   1.500   6.909
    4TRP      N 8417   1.980   1.537   6.737
    4TRP      H 8418   1.918   1.498   6.667
    4TRP     CA 8419   1.984   1.685   6.747
    4TRP     HA 8420   2.017   1.715   6.847
    4TRP     CB 8421   2.092   1.735   6.642
    4TRP    HB2 8422   2.083   1.681   6.548
    4TRP    HB3 8423   2.092   1.844   6.633
    4TRP     CG 8424   2.233   1.705   6.681
    4TRP    CD1 8425   2.306   1.774   6.770
    4TRP    HD1 8426   2.273   1.860   6.828
    4TRP    NE1 8427   2.433   1.726   6.770
    4TRP    HE1 8428   2.503   1.761   6.836
    4TRP    CE2 8429   2.450   1.623   6.684
    4TRP    CZ2 8430   2.554   1.537   6.648
    4TRP    HZ2 8431   2.656   1.541   6.683
    4TRP    CH2 8432   2.528   1.432   6.561
    4TRP    HH2 8433   2.604   1.364   6.526
    4TRP    CZ3 8434   2.398   1.397   6.526
    4TRP    HZ3 8435   2.385   1.314   6.457
    4TRP    CE3 8436   2.286   1.479   6.558
    4TRP    HE3 8437   2.185   1.454   6.527
    4TRP    CD2 8438   2.312   1.597   6.636
    4TRP      C 8439   1.839   1.752   6.712
    4TRP      O 8440   1.753   1.681   6.660
    5PRO      N 8441   1.822   1.881   6.732
    5PRO     CD 8442   1.903   1.953   6.828
    5PRO    HD2 8443   1.981   2.010   6.779
    5PRO    HD3 8444   1.948   1.892   6.908
    5PRO     CG 8445   1.803   2.053   6.892
    5PRO    HG2 8446   1.852   2.141   6.935
    5PRO    HG3 8447   1.751   2.003   6.975
    5PRO     CB 8448   1.716   2.090   6.775
    5PRO    HB2 8449   1.769   2.157   6.706
    5PRO    HB3 8450   1.622   2.124   6.816
    5PRO     CA 8451   1.701   1.957   6.703
    5PRO     HA 8452   1.618   1.904   6.749
    5PRO      C 8453   1.671   1.975   6.553
    5PRO      O 8454   1.772   1.953   6.480
    6TRP      N 8455   1.562   2.030   6.503
    6TRP      H 8456   1.489   2.033   6.573
    6TRP     CA 8457   1.538   2.068   6.357
    6TRP     HA 8458   1.579   1.992   6.291
    6TRP     CB 8459   1.381   2.068   6.337
    6TRP    HB2 8460   1.337   2.131   6.414
    6TRP    HB3 8461   1.347   2.110   6.242
    6TRP     CG 8462   1.311   1.932   6.334
    6TRP    CD1 8463   1.251   1.871   6.441
    6TRP    HD1 8464   1.240   1.926   6.534
    6TRP    NE1 8465   1.207   1.739   6.415
    6TRP    HE1 8466   1.170   1.682   6.489
    6TRP    CE2 8467   1.256   1.704   6.293
    6TRP    CZ2 8468   1.253   1.585   6.219
    6TRP    HZ2 8469   1.220   1.494   6.266
    6TRP    CH2 8470   1.300   1.576   6.090
    6TRP    HH2 8471   1.298   1.477   6.046
    6TRP    CZ3 8472   1.362   1.683   6.024
    6TRP    HZ3 8473   1.404   1.675   5.926
    6TRP    CE3 8474   1.370   1.805   6.100
    6TRP    HE3 8475   1.412   1.893   6.054
    6TRP    CD2 8476   1.315   1.821   6.234
    6TRP      C 8477   1.598   2.195   6.314
    6TRP      O 8478   1.602   2.225   6.193
    7TRP      N 8479   1.647   2.276   6.411
    7TRP      H 8480   1.637   2.240   6.504
    7TRP     CA 8481   1.695   2.413   6.387
    7TRP     HA 8482   1.619   2.461   6.326
    7TRP     CB 8483   1.715   2.482   6.523
    7TRP    HB2 8484   1.818   2.474   6.554
    7TRP    HB3 8485   1.705   2.588   6.503
    7TRP     CG 8486   1.621   2.461   6.641
    7TRP    CD1 8487   1.647   2.490   6.771
    7TRP    HD1 8488   1.740   2.533   6.805
    7TRP    NE1 8489   1.546   2.461   6.858
    7TRP    HE1 8490   1.561   2.472   6.957
    7TRP    CE2 8491   1.437   2.417   6.783
    7TRP    CZ2 8492   1.310   2.383   6.825
    7TRP    HZ2 8493   1.287   2.388   6.932
    7TRP    CH2 8494   1.216   2.336   6.733
    7TRP    HH2 8495   1.116   2.314   6.768
    7TRP    CZ3 8496   1.252   2.327   6.597
    7TRP    HZ3 8497   1.184   2.283   6.525
    7TRP    CE3 8498   1.379   2.380   6.556
    7TRP    HE3 8499   1.401   2.395   6.452
    7TRP    CD2 8500   1.480   2.419   6.649
    7TRP      C 8501   1.821   2.404   6.306
    7TRP      O 8502   1.901   2.313   6.331
    8PRO      N 8503   1.858   2.503   6.221
    8PRO     CD 8504   1.793   2.632   6.203
    8PRO    HD2 8505   1.781   2.684   6.298
    8PRO    HD3 8506   1.698   2.615   6.152
    8PRO     CG 8507   1.893   2.714   6.122
    8PRO    HG2 8508   1.950   2.778   6.189
    8PRO    HG3 8509   1.841   2.780   6.055
    8PRO     CB 8510   1.979   2.610   6.045
    8PRO    HB2 8511   2.081   2.646   6.038
    8PRO    HB3 8512   1.927   2.580   5.953
    8PRO     CA 8513   1.979   2.489   6.137
    8PRO     HA 8514   1.973   2.404   6.070
    8PRO      C 8515   2.109   2.485   6.215
    8PRO      O 8516   2.145   2.585   6.284
    9TRP      N 8517   2.178   2.369   6.202
    9TRP      H 8518   2.138   2.294   6.149
    9TRP     CA 8519   2.313   2.344   6.257
    9TRP     HA 8520   2.373   2.435   6.265
    9TRP     CB 8521   2.293   2.274   6.396
    9TRP    HB2 8522   2.223   2.194   6.374
    9TRP    HB3 8523   2.391   2.234   6.425
    9TRP     CG 8524   2.226   2.356   6.508
    9TRP    CD1 8525   2.111   2.337   6.579
    9TRP    HD1 8526   2.048   2.251   6.574
    9TRP    NE1 8527   2.086   2.439   6.669
    9TRP    HE1 8528   2.010   2.447   6.735
    9TRP    CE2 8529   2.174   2.544   6.650
    9TRP    CZ2 8530   2.197   2.670   6.711
    9TRP    HZ2 8531   2.130   2.704   6.788
    9TRP    CH2 8532   2.314   2.738   6.686
    9TRP    HH2 8533   2.328   2.828   6.743
    9TRP    CZ3 8534   2.405   2.687   6.592
    9TRP    HZ3 8535   2.492   2.748   6.574
    9TRP    CE3 8536   2.382   2.563   6.525
    9TRP    HE3 8537   2.460   2.522   6.462
    9TRP    CD2 8538   2.264   2.492   6.552
    9TRP      C 8539   2.391   2.250   6.163
    9TRP      O 8540   2.352   2.139   6.137
   10ARG      N 8541   2.505   2.297   6.115
   10ARG      H 8542   2.520   2.397   6.125
   10ARG     CA 8543   2.595   2.220   6.039
   10ARG     HA 8544   2.538   2.160   5.969
   10ARG     CB 8545   2.691   2.316   5.971
   10ARG    HB2 8546   2.744   2.377   6.045
   10ARG    HB3 8547   2.770   2.252   5.930
   10ARG     CG 8548   2.634   2.406   5.864
   10ARG    HG2 8549   2.591   2.335   5.792
   10ARG    HG3 8550   2.546   2.462   5.893
   10ARG     CD 8551   2.743   2.499   5.797
   10ARG    HD2 8552   2.703   2.547   5.708
   10ARG    HD3 8553   2.785   2.570   5.870
   10ARG     NE 8554   2.852   2.416   5.737
   10ARG     HE 8555   2.823   2.356   5.662
   10ARG     CZ 8556   2.977   2.406   5.789
   10ARG    NH1 8557   2.999   2.435   5.915
   10ARG   HH11 8558   2.927   2.444   5.986
   10ARG   HH12 8559   3.096   2.440   5.941
   10ARG    NH2 8560   3.078   2.368   5.713
   10ARG   HH21 8561   3.076   2.364   5.613
   10ARG   HH22 8562   3.167   2.358   5.760
   10ARG      C 8563   2.672   2.125   6.130
   10ARG      O 8564   2.709   2.160   6.243
   11ARG      N 8565   2.700   2.000   6.089
   11ARG      H 8566   2.665   1.977   5.998
   11ARG     CA 8567   2.778   1.894   6.156
   11ARG     HA 8568   2.860   1.951   6.202
   11ARG     CB 8569   2.697   1.820   6.273
   11ARG    HB2 8570   2.752   1.731   6.304
   11ARG    HB3 8571   2.682   1.888   6.357
   11ARG     CG 8572   2.561   1.765   6.223
   11ARG    HG2 8573   2.508   1.848   6.178
   11ARG    HG3 8574   2.577   1.694   6.141
   11ARG     CD 8575   2.468   1.708   6.342
   11ARG    HD2 8576   2.510   1.610   6.357
   11ARG    HD3 8577   2.475   1.775   6.427
   11ARG     NE 8578   2.330   1.691   6.291
   11ARG     HE 8579   2.305   1.627   6.216
   11ARG     CZ 8580   2.231   1.772   6.320
   11ARG    NH1 8581   2.230   1.886   6.387
   11ARG   HH11 8582   2.310   1.923   6.436
   11ARG   HH12 8583   2.150   1.946   6.377
   11ARG    NH2 8584   2.114   1.745   6.268
   11ARG   HH21 8585   2.112   1.676   6.196
   11ARG   HH22 8586   2.027   1.777   6.308
   11ARG      C 8587   2.839   1.802   6.052
   11ARG      O 8588   2.768   1.780   5.952
   12LYS      N 8589   2.951   1.736   6.079
   12LYS      H 8590   2.995   1.765   6.165
   12LYS     CA 8591   3.014   1.632   5.994
   12LYS     HA 8592   3.048   1.694   5.912
   12LYS     CB 8593   3.131   1.572   6.077
   12LYS    HB2 8594   3.182   1.646   6.137
   12LYS    HB3 8595   3.089   1.507   6.153
   12LYS     CG 8596   3.241   1.507   6.002
   12LYS    HG2 8597   3.202   1.432   5.933
   12LYS    HG3 8598   3.300   1.583   5.949
   12LYS     CD 8599   3.336   1.438   6.092
   12LYS    HD2 8600   3.386   1.510   6.157
   12LYS    HD3 8601   3.284   1.362   6.151
   12LYS     CE 8602   3.439   1.359   6.000
   12LYS    HE2 8603   3.383   1.296   5.931
   12LYS    HE3 8604   3.503   1.417   5.933
   12LYS     NZ 8605   3.526   1.269   6.079
   12LYS    HZ1 8606   3.603   1.314   6.126
   12LYS    HZ2 8607   3.479   1.210   6.144
   12LYS    HZ3 8608   3.574   1.213   6.009
   12LYS      C 8609   2.927   1.524   5.929
   12LYS      O 8610   2.840   1.471   5.993
   13NHE      N 8611   2.974   1.489   5.806
   13NHE    HN1 8612   3.049   1.539   5.759
   13NHE    HN2 8613   2.935   1.412   5.754
    1ILE      N 8614   5.727   4.466   4.370
    1ILE     H1 8615   5.679   4.461   4.282
    1ILE     H2 8616   5.804   4.400   4.383
    1ILE     H3 8617   5.773   4.555   4.356
    1ILE     CA 8618   5.651   4.482   4.495
    1ILE     HA 8619   5.719   4.522   4.569
    1ILE     CB 8620   5.529   4.581   4.472
    1ILE     HB 8621   5.549   4.674   4.420
    1ILE    CG2 8622   5.429   4.502   4.386
    1ILE   HG21 8623   5.353   4.453   4.446
    1ILE   HG22 8624   5.377   4.563   4.311
    1ILE   HG23 8625   5.478   4.423   4.330
    1ILE    CG1 8626   5.469   4.640   4.603
    1ILE   HG12 8627   5.548   4.670   4.672
    1ILE   HG13 8628   5.407   4.566   4.651
    1ILE    CD1 8629   5.383   4.766   4.580
    1ILE   HD11 8630   5.294   4.745   4.521
    1ILE   HD12 8631   5.337   4.793   4.675
    1ILE   HD13 8632   5.433   4.853   4.538
    1ILE      C 8633   5.616   4.348   4.556
    1ILE      O 8634   5.593   4.255   4.481
    2LEU      N 8635   5.612   4.341   4.689
    2LEU      H 8636   5.630   4.426   4.739
    2LEU     CA 8637   5.544   4.232   4.761
    2LEU     HA 8638   5.508   4.152   4.695
    2LEU     CB 8639   5.637   4.159   4.855
    2LEU    HB2 8640   5.637   4.215   4.948
    2LEU    HB3 8641   5.597   4.060   4.876
    2LEU     CG 8642   5.783   4.142   4.814
    2LEU     HG 8643   5.840   4.234   4.805
    2LEU    CD1 8644   5.862   4.074   4.935
    2LEU   HD11 8645   5.885   4.153   5.006
    2LEU   HD12 8646   5.799   3.998   4.981
    2LEU   HD13 8647   5.954   4.021   4.908
    2LEU    CD2 8648   5.800   4.054   4.695
    2LEU   HD21 8649   5.730   3.972   4.709
    2LEU   HD22 8650   5.757   4.108   4.610
    2LEU   HD23 8651   5.900   4.020   4.673
    2LEU      C 8652   5.420   4.280   4.840
    2LEU      O 8653   5.407   4.397   4.879
    3ARG      N 8654   5.322   4.192   4.849
    3ARG      H 8655   5.338   4.100   4.811
    3ARG     CA 8656   5.188   4.220   4.906
    3ARG     HA 8657   5.193   4.316   4.960
    3ARG     CB 8658   5.077   4.240   4.798
    3ARG    HB2 8659   4.993   4.286   4.849
    3ARG    HB3 8660   5.116   4.318   4.732
    3ARG     CG 8661   5.031   4.117   4.714
    3ARG    HG2 8662   5.113   4.066   4.665
    3ARG    HG3 8663   4.977   4.048   4.779
    3ARG     CD 8664   4.928   4.149   4.606
    3ARG    HD2 8665   4.871   4.057   4.588
    3ARG    HD3 8666   4.850   4.212   4.649
    3ARG     NE 8667   4.980   4.198   4.483
    3ARG     HE 8668   5.012   4.127   4.421
    3ARG     CZ 8669   4.975   4.325   4.440
    3ARG    NH1 8670   4.898   4.416   4.495
    3ARG   HH11 8671   4.866   4.408   4.590
    3ARG   HH12 8672   4.886   4.508   4.459
    3ARG    NH2 8673   5.045   4.352   4.327
    3ARG   HH21 8674   5.095   4.282   4.275
    3ARG   HH22 8675   5.034   4.446   4.288
    3ARG      C 8676   5.142   4.114   5.004
    3ARG      O 8677   5.190   4.002   5.005
    4TRP      N 8678   5.064   4.158   5.104
    4TRP      H 8679   5.024   4.250   5.099
    4TRP     CA 8680   5.025   4.073   5.220
    4TRP     HA 8681   5.039   3.967   5.195
    4TRP     CB 8682   5.125   4.109   5.338
    4TRP    HB2 8683   5.140   4.217   5.345
    4TRP    HB3 8684   5.095   4.062   5.432
    4TRP     CG 8685   5.265   4.059   5.318
    4TRP    CD1 8686   5.306   3.934   5.339
    4TRP    HD1 8687   5.245   3.849   5.370
    4TRP    NE1 8688   5.441   3.928   5.323
    4TRP    HE1 8689   5.491   3.840   5.329
    4TRP    CE2 8690   5.494   4.049   5.290
    4TRP    CZ2 8691   5.621   4.098   5.260
    4TRP    HZ2 8692   5.714   4.042   5.262
    4TRP    CH2 8693   5.634   4.230   5.218
    4TRP    HH2 8694   5.729   4.275   5.196
    4TRP    CZ3 8695   5.524   4.307   5.184
    4TRP    HZ3 8696   5.541   4.409   5.153
    4TRP    CE3 8697   5.390   4.264   5.213
    4TRP    HE3 8698   5.303   4.326   5.191
    4TRP    CD2 8699   5.374   4.134   5.270
    4TRP      C 8700   4.872   4.101   5.266
    4TRP      O 8701   4.814   4.201   5.222
    5PRO      N 8702   4.817   4.023   5.357
    5PRO     CD 8703   4.865   3.889   5.377
    5PRO    HD2 8704   4.929   3.882   5.465
    5PRO    HD3 8705   4.918   3.843   5.292
    5PRO     CG 8706   4.735   3.807   5.405
    5PRO    HG2 8707   4.754   3.716   5.462
    5PRO    HG3 8708   4.692   3.777   5.309
    5PRO     CB 8709   4.653   3.906   5.484
    5PRO    HB2 8710   4.691   3.916   5.586
    5PRO    HB3 8711   4.550   3.876   5.471
    5PRO     CA 8712   4.683   4.036   5.412
    5PRO     HA 8713   4.614   4.045   5.329
    5PRO      C 8714   4.664   4.158   5.505
    5PRO      O 8715   4.773   4.206   5.546
    6TRP      N 8716   4.549   4.197   5.557
    6TRP      H 8717   4.472   4.155   5.507
    6TRP     CA 8718   4.529   4.304   5.663
    6TRP     HA 8719   4.596   4.389   5.645
    6TRP     CB 8720   4.381   4.358   5.646
    6TRP    HB2 8721   4.314   4.272   5.646
    6TRP    HB3 8722   4.345   4.423   5.726
    6TRP     CG 8723   4.353   4.446   5.523
    6TRP    CD1 8724   4.303   4.402   5.404
    6TRP    HD1 8725   4.268   4.299   5.395
    6TRP    NE1 8726   4.300   4.501   5.303
    6TRP    HE1 8727   4.273   4.477   5.209
    6TRP    CE2 8728   4.368   4.608   5.351
    6TRP    CZ2 8729   4.406   4.731   5.294
    6TRP    HZ2 8730   4.396   4.747   5.188
    6TRP    CH2 8731   4.465   4.832   5.367
    6TRP    HH2 8732   4.495   4.919   5.310
    6TRP    CZ3 8733   4.500   4.817   5.502
    6TRP    HZ3 8734   4.553   4.893   5.557
    6TRP    CE3 8735   4.467   4.691   5.560
    6TRP    HE3 8736   4.487   4.674   5.665
    6TRP    CD2 8737   4.397   4.585   5.489
    6TRP      C 8738   4.554   4.262   5.801
    6TRP      O 8739   4.562   4.345   5.894
    7TRP      N 8740   4.570   4.129   5.823
    7TRP      H 8741   4.561   4.072   5.740
    7TRP     CA 8742   4.578   4.067   5.956
    7TRP     HA 8743   4.499   4.111   6.015
    7TRP     CB 8744   4.565   3.915   5.941
    7TRP    HB2 8745   4.663   3.870   5.936
    7TRP    HB3 8746   4.528   3.880   6.037
    7TRP     CG 8747   4.471   3.850   5.842
    7TRP    CD1 8748   4.475   3.721   5.798
    7TRP    HD1 8749   4.549   3.649   5.832
    7TRP    NE1 8750   4.378   3.687   5.708
    7TRP    HE1 8751   4.380   3.596   5.665
    7TRP    CE2 8752   4.294   3.797   5.693
    7TRP    CZ2 8753   4.178   3.809   5.619
    7TRP    HZ2 8754   4.144   3.724   5.560
    7TRP    CH2 8755   4.110   3.932   5.614
    7TRP    HH2 8756   4.018   3.937   5.558
    7TRP    CZ3 8757   4.161   4.040   5.688
    7TRP    HZ3 8758   4.114   4.138   5.679
    7TRP    CE3 8759   4.270   4.018   5.777
    7TRP    HE3 8760   4.297   4.091   5.851
    7TRP    CD2 8761   4.347   3.898   5.777
    7TRP      C 8762   4.709   4.110   6.017
    7TRP      O 8763   4.809   4.117   5.944
    8PRO      N 8764   4.724   4.121   6.152
    8PRO     CD 8765   4.628   4.086   6.255
    8PRO    HD2 8766   4.593   3.983   6.242
    8PRO    HD3 8767   4.547   4.159   6.251
    8PRO     CG 8768   4.708   4.088   6.384
    8PRO    HG2 8769   4.739   3.986   6.409
    8PRO    HG3 8770   4.646   4.121   6.465
    8PRO     CB 8771   4.827   4.184   6.358
    8PRO    HB2 8772   4.915   4.148   6.410
    8PRO    HB3 8773   4.794   4.288   6.375
    8PRO     CA 8774   4.852   4.170   6.209
    8PRO     HA 8775   4.876   4.270   6.176
    8PRO      C 8776   4.970   4.077   6.187
    8PRO      O 8777   4.969   3.960   6.236
    9TRP      N 8778   5.069   4.131   6.112
    9TRP      H 8779   5.058   4.222   6.073
    9TRP     CA 8780   5.201   4.067   6.087
    9TRP     HA 8781   5.231   4.000   6.167
    9TRP     CB 8782   5.188   3.992   5.949
    9TRP    HB2 8783   5.146   4.067   5.883
    9TRP    HB3 8784   5.290   3.965   5.919
    9TRP     CG 8785   5.091   3.872   5.942
    9TRP    CD1 8786   4.980   3.851   5.866
    9TRP    HD1 8787   4.944   3.913   5.787
    9TRP    NE1 8788   4.918   3.729   5.894
    9TRP    HE1 8789   4.836   3.688   5.850
    9TRP    CE2 8790   4.974   3.671   6.007
    9TRP    CZ2 8791   4.955   3.552   6.079
    9TRP    HZ2 8792   4.874   3.486   6.053
    9TRP    CH2 8793   5.050   3.510   6.170
    9TRP    HH2 8794   5.032   3.414   6.215
    9TRP    CZ3 8795   5.161   3.593   6.198
    9TRP    HZ3 8796   5.228   3.557   6.273
    9TRP    CE3 8797   5.180   3.717   6.129
    9TRP    HE3 8798   5.271   3.772   6.145
    9TRP    CD2 8799   5.084   3.758   6.035
    9TRP      C 8800   5.311   4.174   6.077
    9TRP      O 8801   5.307   4.262   5.994
   10ARG      N 8802   5.411   4.164   6.162
   10ARG      H 8803   5.395   4.101   6.242
   10ARG     CA 8804   5.525   4.245   6.159
   10ARG     HA 8805   5.495   4.347   6.138
   10ARG     CB 8806   5.596   4.230   6.292
   10ARG    HB2 8807   5.623   4.125   6.310
   10ARG    HB3 8808   5.694   4.279   6.277
   10ARG     CG 8809   5.527   4.286   6.414
   10ARG    HG2 8810   5.513   4.392   6.388
   10ARG    HG3 8811   5.424   4.254   6.427
   10ARG     CD 8812   5.611   4.268   6.546
   10ARG    HD2 8813   5.568   4.327   6.627
   10ARG    HD3 8814   5.624   4.162   6.571
   10ARG     NE 8815   5.744   4.335   6.532
   10ARG     HE 8816   5.741   4.435   6.520
   10ARG     CZ 8817   5.861   4.268   6.519
   10ARG    NH1 8818   5.862   4.144   6.477
   10ARG   HH11 8819   5.784   4.097   6.431
   10ARG   HH12 8820   5.951   4.097   6.484
   10ARG    NH2 8821   5.976   4.327   6.548
   10ARG   HH21 8822   5.985   4.413   6.600
   10ARG   HH22 8823   6.059   4.273   6.530
   10ARG      C 8824   5.617   4.200   6.046
   10ARG      O 8825   5.632   4.079   6.018
   11ARG      N 8826   5.683   4.291   5.971
   11ARG      H 8827   5.665   4.387   5.997
   11ARG     CA 8828   5.781   4.272   5.863
   11ARG     HA 8829   5.839   4.185   5.899
   11ARG     CB 8830   5.713   4.231   5.723
   11ARG    HB2 8831   5.788   4.238   5.643
   11ARG    HB3 8832   5.672   4.131   5.729
   11ARG     CG 8833   5.604   4.332   5.680
   11ARG    HG2 8834   5.534   4.339   5.763
   11ARG    HG3 8835   5.646   4.432   5.671
   11ARG     CD 8836   5.520   4.284   5.552
   11ARG    HD2 8837   5.586   4.312   5.471
   11ARG    HD3 8838   5.499   4.178   5.561
   11ARG     NE 8839   5.397   4.367   5.540
   11ARG     HE 8840   5.399   4.468   5.525
   11ARG     CZ 8841   5.278   4.325   5.572
   11ARG    NH1 8842   5.238   4.212   5.627
   11ARG   HH11 8843   5.299   4.133   5.645
   11ARG   HH12 8844   5.146   4.208   5.667
   11ARG    NH2 8845   5.178   4.408   5.557
   11ARG   HH21 8846   5.203   4.504   5.540
   11ARG   HH22 8847   5.083   4.379   5.545
   11ARG      C 8848   5.875   4.390   5.857
   11ARG      O 8849   5.823   4.501   5.881
   12LYS      N 8850   5.998   4.375   5.809
   12LYS      H 8851   6.024   4.279   5.793
   12LYS     CA 8852   6.095   4.485   5.783
   12LYS     HA 8853   6.118   4.513   5.885
   12LYS     CB 8854   6.216   4.419   5.710
   12LYS    HB2 8855   6.238   4.319   5.747
   12LYS    HB3 8856   6.188   4.399   5.607
   12LYS     CG 8857   6.347   4.489   5.719
   12LYS    HG2 8858   6.337   4.593   5.689
   12LYS    HG3 8859   6.386   4.480   5.821
   12LYS     CD 8860   6.448   4.427   5.630
   12LYS    HD2 8861   6.470   4.325   5.663
   12LYS    HD3 8862   6.415   4.429   5.527
   12LYS     CE 8863   6.577   4.519   5.637
   12LYS    HE2 8864   6.549   4.622   5.613
   12LYS    HE3 8865   6.628   4.531   5.733
   12LYS     NZ 8866   6.679   4.480   5.536
   12LYS    HZ1 8867   6.735   4.399   5.561
   12LYS    HZ2 8868   6.644   4.466   5.443
   12LYS    HZ3 8869   6.747   4.555   5.538
   12LYS      C 8870   6.049   4.614   5.715
   12LYS      O 8871   5.975   4.608   5.620
   13NHE      N 8872   6.115   4.722   5.763
   13NHE    HN1 8873   6.177   4.718   5.843
   13NHE    HN2 8874   6.105   4.814   5.722
    1ILE      N 8875   9.077   7.128   7.377
    1ILE     H1 8876   9.099   7.175   7.291
    1ILE     H2 8877   8.978   7.107   7.393
    1ILE     H3 8878   9.117   7.038   7.355
    1ILE     CA 8879   9.142   7.168   7.503
    1ILE     HA 8880   9.134   7.085   7.572
    1ILE     CB 8881   9.294   7.205   7.476
    1ILE     HB 8882   9.352   7.135   7.415
    1ILE    CG2 8883   9.290   7.338   7.399
    1ILE   HG21 8884   9.302   7.423   7.465
    1ILE   HG22 8885   9.367   7.346   7.321
    1ILE   HG23 8886   9.196   7.352   7.348
    1ILE    CG1 8887   9.384   7.205   7.603
    1ILE   HG12 8888   9.361   7.120   7.668
    1ILE   HG13 8889   9.366   7.297   7.659
    1ILE    CD1 8890   9.535   7.198   7.572
    1ILE   HD11 8891   9.571   7.285   7.518
    1ILE   HD12 8892   9.588   7.210   7.666
    1ILE   HD13 8893   9.569   7.107   7.522
    1ILE      C 8894   9.062   7.274   7.575
    1ILE      O 8895   8.999   7.355   7.509
    2LEU      N 8896   9.064   7.272   7.709
    2LEU      H 8897   9.122   7.202   7.751
    2LEU     CA 8898   9.025   7.387   7.791
    2LEU     HA 8899   8.981   7.470   7.733
    2LEU     CB 8900   8.913   7.352   7.888
    2LEU    HB2 8901   8.961   7.311   7.977
    2LEU    HB3 8902   8.862   7.443   7.918
    2LEU     CG 8903   8.808   7.252   7.844
    2LEU     HG 8904   8.845   7.151   7.826
    2LEU    CD1 8905   8.712   7.223   7.968
    2LEU   HD11 8906   8.762   7.151   8.032
    2LEU   HD12 8907   8.693   7.316   8.022
    2LEU   HD13 8908   8.612   7.185   7.943
    2LEU    CD2 8909   8.724   7.301   7.732
    2LEU   HD21 8910   8.703   7.406   7.755
    2LEU   HD22 8911   8.788   7.308   7.644
    2LEU   HD23 8912   8.634   7.245   7.710
    2LEU      C 8913   9.143   7.449   7.870
    2LEU      O 8914   9.244   7.384   7.900
    3ARG      N 8915   9.135   7.580   7.888
    3ARG      H 8916   9.051   7.626   7.857
    3ARG     CA 8917   9.243   7.663   7.947
    3ARG     HA 8918   9.317   7.596   7.992
    3ARG     CB 8919   9.322   7.746   7.841
    3ARG    HB2 8920   9.412   7.780   7.890
    3ARG    HB3 8921   9.356   7.672   7.768
    3ARG     CG 8922   9.250   7.864   7.768
    3ARG    HG2 8923   9.157   7.835   7.721
    3ARG    HG3 8924   9.233   7.944   7.840
    3ARG     CD 8925   9.334   7.933   7.661
    3ARG    HD2 8926   9.297   8.035   7.652
    3ARG    HD3 8927   9.434   7.951   7.702
    3ARG     NE 8928   9.335   7.870   7.533
    3ARG     HE 8929   9.256   7.894   7.476
    3ARG     CZ 8930   9.436   7.800   7.480
    3ARG    NH1 8931   9.558   7.800   7.530
    3ARG   HH11 8932   9.575   7.823   7.626
    3ARG   HH12 8933   9.635   7.754   7.487
    3ARG    NH2 8934   9.408   7.735   7.364
    3ARG   HH21 8935   9.320   7.743   7.316
    3ARG   HH22 8936   9.487   7.689   7.318
    3ARG      C 8937   9.193   7.758   8.054
    3ARG      O 8938   9.075   7.789   8.063
    4TRP      N 8939   9.279   7.784   8.152
    4TRP      H 8940   9.376   7.760   8.142
    4TRP     CA 8941   9.242   7.859   8.276
    4TRP     HA 8942   9.150   7.915   8.259
    4TRP     CB 8943   9.214   7.750   8.388
    4TRP    HB2 8944   9.289   7.671   8.385
    4TRP    HB3 8945   9.200   7.796   8.486
    4TRP     CG 8946   9.088   7.672   8.368
    4TRP    CD1 8947   8.965   7.716   8.397
    4TRP    HD1 8948   8.938   7.813   8.437
    4TRP    NE1 8949   8.876   7.615   8.379
    4TRP    HE1 8950   8.775   7.629   8.390
    4TRP    CE2 8951   8.936   7.501   8.334
    4TRP    CZ2 8952   8.894   7.373   8.296
    4TRP    HZ2 8953   8.793   7.334   8.301
    4TRP    CH2 8954   8.987   7.285   8.244
    4TRP    HH2 8955   8.963   7.184   8.215
    4TRP    CZ3 8956   9.115   7.327   8.207
    4TRP    HZ3 8957   9.183   7.252   8.167
    4TRP    CE3 8958   9.165   7.455   8.243
    4TRP    HE3 8959   9.267   7.487   8.219
    4TRP    CD2 8960   9.076   7.544   8.311
    4TRP      C 8961   9.362   7.958   8.324
    4TRP      O 8962   9.473   7.945   8.274
    5PRO      N 8963   9.338   8.043   8.423
    5PRO     CD 8964   9.204   8.086   8.452
    5PRO    HD2 8965   9.164   8.035   8.539
    5PRO    HD3 8966   9.132   8.080   8.369
    5PRO     CG 8967   9.222   8.237   8.490
    5PRO    HG2 8968   9.142   8.274   8.554
    5PRO    HG3 8969   9.221   8.296   8.398
    5PRO     CB 8970   9.354   8.234   8.563
    5PRO    HB2 8971   9.343   8.191   8.664
    5PRO    HB3 8972   9.394   8.335   8.556
    5PRO     CA 8973   9.434   8.135   8.481
    5PRO     HA 8974   9.480   8.190   8.399
    5PRO      C 8975   9.546   8.069   8.563
    5PRO      O 8976   9.518   7.951   8.597
    6TRP      N 8977   9.650   8.131   8.615
    6TRP      H 8978   9.662   8.221   8.571
    6TRP     CA 8979   9.751   8.073   8.713
    6TRP     HA 8980   9.775   7.970   8.687
    6TRP     CB 8981   9.884   8.158   8.696
    6TRP    HB2 8982   9.858   8.263   8.705
    6TRP    HB3 8983   9.961   8.140   8.772
    6TRP     CG 8984   9.964   8.134   8.568
    6TRP    CD1 8985   9.956   8.209   8.454
    6TRP    HD1 8986   9.897   8.300   8.455
    6TRP    NE1 8987  10.031   8.158   8.345
    6TRP    HE1 8988  10.024   8.200   8.254
    6TRP    CE2 8989  10.075   8.034   8.382
    6TRP    CZ2 8990  10.145   7.933   8.315
    6TRP    HZ2 8991  10.159   7.939   8.208
    6TRP    CH2 8992  10.191   7.819   8.378
    6TRP    HH2 8993  10.238   7.746   8.314
    6TRP    CZ3 8994  10.163   7.791   8.512
    6TRP    HZ3 8995  10.193   7.699   8.560
    6TRP    CE3 8996  10.088   7.891   8.582
    6TRP    HE3 8997  10.067   7.878   8.687
    6TRP    CD2 8998  10.045   8.016   8.521
    6TRP      C 8999   9.708   8.070   8.854
    6TRP      O 9000   9.773   8.005   8.939
    7TRP      N 9001   9.596   8.138   8.885
    7TRP      H 9002   9.553   8.185   8.808
    7TRP     CA 9003   9.548   8.159   9.023
    7TRP     HA 9004   9.634   8.191   9.081
    7TRP     CB 9005   9.437   8.264   9.020
    7TRP    HB2 9006   9.340   8.216   9.017
    7TRP    HB3 9007   9.436   8.308   9.120
    7TRP     CG 9008   9.440   8.386   8.929
    7TRP    CD1 9009   9.334   8.466   8.897
    7TRP    HD1 9010   9.234   8.449   8.934
    7TRP    NE1 9011   9.364   8.568   8.812
    7TRP    HE1 9012   9.289   8.626   8.776
    7TRP    CE2 9013   9.501   8.568   8.791
    7TRP    CZ2 9014   9.579   8.657   8.720
    7TRP    HZ2 9015   9.531   8.740   8.668
    7TRP    CH2 9016   9.717   8.634   8.707
    7TRP    HH2 9017   9.776   8.708   8.653
    7TRP    CZ3 9018   9.774   8.523   8.770
    7TRP    HZ3 9019   9.879   8.500   8.755
    7TRP    CE3 9020   9.692   8.444   8.858
    7TRP    HE3 9021   9.736   8.373   8.925
    7TRP    CD2 9022   9.550   8.458   8.865
    7TRP      C 9023   9.503   8.026   9.076
    7TRP      O 9024   9.443   7.949   9.001
    8PRO      N 9025   9.509   7.997   9.209
    8PRO     CD 9026   9.545   8.087   9.318
    8PRO    HD2 9027   9.486   8.180   9.314
    8PRO    HD3 9028   9.652   8.106   9.310
    8PRO     CG 9029   9.503   8.014   9.444
    8PRO    HG2 9030   9.406   8.051   9.477
    8PRO    HG3 9031   9.572   8.036   9.524
    8PRO     CB 9032   9.504   7.863   9.406
    8PRO    HB2 9033   9.423   7.813   9.459
    8PRO    HB3 9034   9.606   7.824   9.416
    8PRO     CA 9035   9.470   7.863   9.259
    8PRO     HA 9036   9.532   7.785   9.217
    8PRO      C 9037   9.324   7.829   9.241
    8PRO      O 9038   9.234   7.898   9.299
    9TRP      N 9039   9.301   7.724   9.159
    9TRP      H 9040   9.377   7.680   9.113
    9TRP     CA 9041   9.168   7.662   9.135
    9TRP     HA 9042   9.100   7.674   9.220
    9TRP     CB 9043   9.110   7.728   9.005
    9TRP    HB2 9044   9.192   7.720   8.934
    9TRP    HB3 9045   9.025   7.667   8.974
    9TRP     CG 9046   9.077   7.879   9.010
    9TRP    CD1 9047   9.126   7.985   8.939
    9TRP    HD1 9048   9.193   7.980   8.856
    9TRP    NE1 9049   9.070   8.106   8.979
    9TRP    HE1 9050   9.086   8.198   8.941
    9TRP    CE2 9051   8.995   8.090   9.094
    9TRP    CZ2 9052   8.917   8.173   9.176
    9TRP    HZ2 9053   8.914   8.279   9.157
    9TRP    CH2 9054   8.829   8.117   9.267
    9TRP    HH2 9055   8.767   8.188   9.320
    9TRP    CZ3 9056   8.827   7.978   9.285
    9TRP    HZ3 9057   8.759   7.942   9.361
    9TRP    CE3 9058   8.908   7.891   9.206
    9TRP    HE3 9059   8.896   7.785   9.215
    9TRP    CD2 9060   8.996   7.948   9.112
    9TRP      C 9061   9.183   7.510   9.114
    9TRP      O 9062   9.250   7.465   9.024
   10ARG      N 9063   9.116   7.432   9.197
   10ARG      H 9064   9.081   7.477   9.281
   10ARG     CA 9065   9.109   7.293   9.183
   10ARG     HA 9066   9.207   7.256   9.155
   10ARG     CB 9067   9.059   7.236   9.315
   10ARG    HB2 9068   8.962   7.279   9.341
   10ARG    HB3 9069   9.036   7.132   9.293
   10ARG     CG 9070   9.152   7.248   9.434
   10ARG    HG2 9071   9.242   7.195   9.400
   10ARG    HG3 9072   9.191   7.347   9.452
   10ARG     CD 9073   9.092   7.183   9.565
   10ARG    HD2 9074   9.168   7.175   9.642
   10ARG    HD3 9075   9.001   7.236   9.598
   10ARG     NE 9076   9.061   7.038   9.541
   10ARG     HE 9077   9.141   6.981   9.521
   10ARG     CZ 9078   8.935   6.989   9.530
   10ARG    NH1 9079   8.836   7.068   9.498
   10ARG   HH11 9080   8.845   7.161   9.459
   10ARG   HH12 9081   8.744   7.027   9.507
   10ARG    NH2 9082   8.912   6.861   9.552
   10ARG   HH21 9083   8.976   6.797   9.596
   10ARG   HH22 9084   8.817   6.830   9.536
   10ARG      C 9085   9.012   7.257   9.072
   10ARG      O 9086   8.907   7.321   9.053
   11ARG      N 9087   9.039   7.154   8.988
   11ARG      H 9088   9.126   7.108   9.007
   11ARG     CA 9089   8.958   7.097   8.879
   11ARG     HA 9090   8.857   7.103   8.920
   11ARG     CB 9091   8.962   7.185   8.745
   11ARG    HB2 9092   8.917   7.128   8.663
   11ARG    HB3 9093   8.910   7.279   8.760
   11ARG     CG 9094   9.107   7.212   8.697
   11ARG    HG2 9095   9.160   7.256   8.781
   11ARG    HG3 9096   9.159   7.118   8.679
   11ARG     CD 9097   9.116   7.316   8.575
   11ARG    HD2 9098   9.093   7.254   8.491
   11ARG    HD3 9099   9.046   7.398   8.593
   11ARG     NE 9100   9.256   7.363   8.561
   11ARG     HE 9101   9.333   7.300   8.538
   11ARG     CZ 9102   9.299   7.480   8.600
   11ARG    NH1 9103   9.238   7.577   8.664
   11ARG   HH11 9104   9.139   7.576   8.687
   11ARG   HH12 9105   9.293   7.649   8.707
   11ARG    NH2 9106   9.425   7.507   8.581
   11ARG   HH21 9107   9.484   7.431   8.555
   11ARG   HH22 9108   9.461   7.601   8.574
   11ARG      C 9109   8.992   6.951   8.861
   11ARG      O 9110   9.113   6.921   8.877
   12LYS      N 9111   8.902   6.867   8.810
   12LYS      H 9112   8.810   6.907   8.802
   12LYS     CA 9113   8.927   6.725   8.773
   12LYS     HA 9114   8.939   6.683   8.871
   12LYS     CB 9115   8.797   6.676   8.702
   12LYS    HB2 9116   8.707   6.718   8.746
   12LYS    HB3 9117   8.794   6.718   8.602
   12LYS     CG 9118   8.771   6.530   8.702
   12LYS    HG2 9119   8.857   6.476   8.664
   12LYS    HG3 9120   8.744   6.498   8.803
   12LYS     CD 9121   8.655   6.495   8.616
   12LYS    HD2 9122   8.564   6.539   8.655
   12LYS    HD3 9123   8.673   6.528   8.513
   12LYS     CE 9124   8.648   6.337   8.611
   12LYS    HE2 9125   8.745   6.298   8.580
   12LYS    HE3 9126   8.630   6.283   8.704
   12LYS     NZ 9127   8.550   6.289   8.511
   12LYS    HZ1 9128   8.453   6.292   8.540
   12LYS    HZ2 9129   8.557   6.331   8.420
   12LYS    HZ3 9130   8.566   6.188   8.505
   12LYS      C 9131   9.053   6.687   8.696
   12LYS      O 9132   9.090   6.756   8.604
   13NHE      N 9133   9.099   6.565   8.733
   13NHE    HN1 9134   9.061   6.513   8.812
   13NHE    HN2 9135   9.175   6.519   8.686
    1ILE      N 9136   5.445   0.745   6.980
    1ILE     H1 9137   5.361   0.738   7.035
    1ILE     H2 9138   5.505   0.663   6.980
    1ILE     H3 9139   5.401   0.745   6.889
    1ILE     CA 9140   5.525   0.868   6.983
    1ILE     HA 9141   5.585   0.869   6.893
    1ILE     CB 9142   5.430   0.996   6.989
    1ILE     HB 9143   5.346   0.998   6.920
    1ILE    CG2 9144   5.371   0.994   7.131
    1ILE   HG21 9145   5.428   1.058   7.199
    1ILE   HG22 9146   5.266   1.027   7.136
    1ILE   HG23 9147   5.373   0.895   7.174
    1ILE    CG1 9148   5.499   1.129   6.948
    1ILE   HG12 9149   5.562   1.115   6.860
    1ILE   HG13 9150   5.560   1.164   7.030
    1ILE    CD1 9151   5.399   1.241   6.912
    1ILE   HD11 9152   5.338   1.271   6.997
    1ILE   HD12 9153   5.456   1.332   6.896
    1ILE   HD13 9154   5.334   1.223   6.827
    1ILE      C 9155   5.632   0.862   7.090
    1ILE      O 9156   5.608   0.801   7.193
    2LEU      N 9157   5.748   0.923   7.064
    2LEU      H 9158   5.754   0.973   6.977
    2LEU     CA 9159   5.844   0.959   7.169
    2LEU     HA 9160   5.818   0.919   7.268
    2LEU     CB 9161   5.981   0.898   7.144
    2LEU    HB2 9162   6.034   0.968   7.078
    2LEU    HB3 9163   6.036   0.894   7.237
    2LEU     CG 9164   5.989   0.761   7.078
    2LEU     HG 9165   5.950   0.756   6.976
    2LEU    CD1 9166   6.142   0.727   7.050
    2LEU   HD11 9167   6.170   0.779   6.959
    2LEU   HD12 9168   6.202   0.761   7.134
    2LEU   HD13 9169   6.166   0.621   7.040
    2LEU    CD2 9170   5.933   0.653   7.163
    2LEU   HD21 9171   5.968   0.674   7.264
    2LEU   HD22 9172   5.826   0.670   7.171
    2LEU   HD23 9173   5.954   0.551   7.133
    2LEU      C 9174   5.859   1.112   7.189
    2LEU      O 9175   5.834   1.193   7.099
    3ARG      N 9176   5.885   1.150   7.313
    3ARG      H 9177   5.901   1.077   7.381
    3ARG     CA 9178   5.889   1.291   7.359
    3ARG     HA 9179   5.890   1.355   7.270
    3ARG     CB 9180   5.762   1.333   7.439
    3ARG    HB2 9181   5.764   1.442   7.443
    3ARG    HB3 9182   5.679   1.308   7.373
    3ARG     CG 9183   5.739   1.273   7.581
    3ARG    HG2 9184   5.741   1.164   7.582
    3ARG    HG3 9185   5.813   1.312   7.649
    3ARG     CD 9186   5.608   1.315   7.646
    3ARG    HD2 9187   5.623   1.307   7.755
    3ARG    HD3 9188   5.596   1.423   7.635
    3ARG     NE 9189   5.493   1.240   7.609
    3ARG     HE 9190   5.481   1.154   7.659
    3ARG     CZ 9191   5.394   1.282   7.528
    3ARG    NH1 9192   5.379   1.408   7.492
    3ARG   HH11 9193   5.456   1.473   7.494
    3ARG   HH12 9194   5.302   1.442   7.439
    3ARG    NH2 9195   5.302   1.189   7.493
    3ARG   HH21 9196   5.303   1.095   7.528
    3ARG   HH22 9197   5.222   1.222   7.439
    3ARG      C 9198   6.012   1.323   7.442
    3ARG      O 9199   6.077   1.235   7.497
    4TRP      N 9200   6.058   1.448   7.431
    4TRP      H 9201   6.000   1.519   7.388
    4TRP     CA 9202   6.187   1.493   7.489
    4TRP     HA 9203   6.219   1.422   7.567
    4TRP     CB 9204   6.294   1.489   7.372
    4TRP    HB2 9205   6.251   1.530   7.280
    4TRP    HB3 9206   6.388   1.534   7.402
    4TRP     CG 9207   6.333   1.351   7.329
    4TRP    CD1 9208   6.420   1.272   7.393
    4TRP    HD1 9209   6.472   1.294   7.485
    4TRP    NE1 9210   6.441   1.160   7.319
    4TRP    HE1 9211   6.500   1.084   7.353
    4TRP    CE2 9212   6.368   1.160   7.204
    4TRP    CZ2 9213   6.349   1.072   7.097
    4TRP    HZ2 9214   6.400   0.977   7.081
    4TRP    CH2 9215   6.254   1.103   7.001
    4TRP    HH2 9216   6.236   1.041   6.914
    4TRP    CZ3 9217   6.163   1.206   7.019
    4TRP    HZ3 9218   6.091   1.225   6.940
    4TRP    CE3 9219   6.176   1.300   7.125
    4TRP    HE3 9220   6.107   1.385   7.137
    4TRP    CD2 9221   6.283   1.280   7.218
    4TRP      C 9222   6.176   1.643   7.550
    4TRP      O 9223   6.078   1.712   7.522
    5PRO      N 9224   6.278   1.691   7.620
    5PRO     CD 9225   6.370   1.603   7.686
    5PRO    HD2 9226   6.463   1.593   7.630
    5PRO    HD3 9227   6.332   1.502   7.710
    5PRO     CG 9228   6.402   1.677   7.820
    5PRO    HG2 9229   6.498   1.648   7.863
    5PRO    HG3 9230   6.325   1.651   7.893
    5PRO     CB 9231   6.403   1.821   7.775
    5PRO    HB2 9232   6.494   1.845   7.718
    5PRO    HB3 9233   6.382   1.880   7.864
    5PRO     CA 9234   6.287   1.824   7.677
    5PRO     HA 9235   6.196   1.842   7.734
    5PRO      C 9236   6.303   1.938   7.574
    5PRO      O 9237   6.340   1.897   7.461
    6TRP      N 9238   6.301   2.068   7.602
    6TRP      H 9239   6.261   2.083   7.693
    6TRP     CA 9240   6.336   2.181   7.507
    6TRP     HA 9241   6.296   2.161   7.407
    6TRP     CB 9242   6.261   2.309   7.561
    6TRP    HB2 9243   6.286   2.321   7.667
    6TRP    HB3 9244   6.289   2.404   7.514
    6TRP     CG 9245   6.109   2.313   7.543
    6TRP    CD1 9246   6.017   2.276   7.636
    6TRP    HD1 9247   6.050   2.251   7.737
    6TRP    NE1 9248   5.883   2.276   7.590
    6TRP    HE1 9249   5.808   2.241   7.647
    6TRP    CE2 9250   5.889   2.296   7.455
    6TRP    CZ2 9251   5.791   2.298   7.354
    6TRP    HZ2 9252   5.691   2.262   7.376
    6TRP    CH2 9253   5.819   2.332   7.224
    6TRP    HH2 9254   5.737   2.323   7.154
    6TRP    CZ3 9255   5.948   2.362   7.180
    6TRP    HZ3 9256   5.971   2.383   7.076
    6TRP    CE3 9257   6.050   2.357   7.280
    6TRP    HE3 9258   6.152   2.383   7.254
    6TRP    CD2 9259   6.024   2.328   7.420
    6TRP      C 9260   6.479   2.207   7.489
    6TRP      O 9261   6.520   2.283   7.398
    7TRP      N 9262   6.564   2.144   7.573
    7TRP      H 9263   6.519   2.086   7.642
    7TRP     CA 9264   6.708   2.172   7.581
    7TRP     HA 9265   6.719   2.280   7.582
    7TRP     CB 9266   6.765   2.105   7.707
    7TRP    HB2 9267   6.806   2.008   7.682
    7TRP    HB3 9268   6.854   2.162   7.732
    7TRP     CG 9269   6.690   2.100   7.838
    7TRP    CD1 9270   6.715   2.018   7.944
    7TRP    HD1 9271   6.795   1.945   7.944
    7TRP    NE1 9272   6.632   2.034   8.051
    7TRP    HE1 9273   6.639   1.970   8.129
    7TRP    CE2 9274   6.547   2.141   8.024
    7TRP    CZ2 9275   6.452   2.200   8.104
    7TRP    HZ2 9276   6.434   2.158   8.203
    7TRP    CH2 9277   6.373   2.304   8.054
    7TRP    HH2 9278   6.301   2.351   8.121
    7TRP    CZ3 9279   6.396   2.350   7.924
    7TRP    HZ3 9280   6.331   2.426   7.881
    7TRP    CE3 9281   6.508   2.299   7.851
    7TRP    HE3 9282   6.542   2.347   7.761
    7TRP    CD2 9283   6.583   2.185   7.894
    7TRP      C 9284   6.771   2.121   7.454
    7TRP      O 9285   6.729   2.015   7.406
    8PRO      N 9286   6.883   2.178   7.402
    8PRO     CD 9287   6.965   2.282   7.461
    8PRO    HD2 9288   6.994   2.256   7.563
    8PRO    HD3 9289   6.908   2.375   7.457
    8PRO     CG 9290   7.092   2.283   7.378
    8PRO    HG2 9291   7.169   2.225   7.430
    8PRO    HG3 9292   7.130   2.384   7.371
    8PRO     CB 9293   7.052   2.225   7.240
    8PRO    HB2 9294   7.134   2.166   7.200
    8PRO    HB3 9295   7.009   2.305   7.178
    8PRO     CA 9296   6.939   2.130   7.273
    8PRO     HA 9297   6.868   2.142   7.191
    8PRO      C 9298   6.991   1.988   7.276
    8PRO      O 9299   7.089   1.958   7.352
    9TRP      N 9300   6.926   1.902   7.194
    9TRP      H 9301   6.847   1.935   7.143
    9TRP     CA 9302   6.966   1.762   7.168
    9TRP     HA 9303   7.073   1.745   7.180
    9TRP     CB 9304   6.882   1.673   7.267
    9TRP    HB2 9305   6.781   1.708   7.253
    9TRP    HB3 9306   6.893   1.569   7.232
    9TRP     CG 9307   6.910   1.689   7.418
    9TRP    CD1 9308   6.830   1.727   7.521
    9TRP    HD1 9309   6.725   1.746   7.516
    9TRP    NE1 9310   6.897   1.732   7.643
    9TRP    HE1 9311   6.860   1.754   7.735
    9TRP    CE2 9312   7.033   1.715   7.624
    9TRP    CZ2 9313   7.147   1.709   7.707
    9TRP    HZ2 9314   7.137   1.727   7.813
    9TRP    CH2 9315   7.266   1.660   7.657
    9TRP    HH2 9316   7.345   1.650   7.729
    9TRP    CZ3 9317   7.276   1.627   7.521
    9TRP    HZ3 9318   7.373   1.594   7.488
    9TRP    CE3 9319   7.164   1.637   7.434
    9TRP    HE3 9320   7.172   1.601   7.333
    9TRP    CD2 9321   7.042   1.685   7.484
    9TRP      C 9322   6.932   1.723   7.023
    9TRP      O 9323   6.819   1.727   6.981
   10ARG      N 9324   7.034   1.682   6.948
   10ARG      H 9325   7.127   1.703   6.985
   10ARG     CA 9326   7.019   1.632   6.819
   10ARG     HA 9327   6.945   1.691   6.766
   10ARG     CB 9328   7.155   1.633   6.753
   10ARG    HB2 9329   7.227   1.574   6.811
   10ARG    HB3 9330   7.142   1.575   6.661
   10ARG     CG 9331   7.216   1.768   6.723
   10ARG    HG2 9332   7.140   1.815   6.658
   10ARG    HG3 9333   7.218   1.837   6.806
   10ARG     CD 9334   7.356   1.758   6.651
   10ARG    HD2 9335   7.386   1.855   6.613
   10ARG    HD3 9336   7.431   1.711   6.716
   10ARG     NE 9337   7.344   1.681   6.523
   10ARG     HE 9338   7.285   1.724   6.454
   10ARG     CZ 9339   7.392   1.556   6.505
   10ARG    NH1 9340   7.415   1.479   6.609
   10ARG   HH11 9341   7.381   1.495   6.703
   10ARG   HH12 9342   7.465   1.394   6.588
   10ARG    NH2 9343   7.416   1.510   6.384
   10ARG   HH21 9344   7.421   1.567   6.301
   10ARG   HH22 9345   7.446   1.414   6.378
   10ARG      C 9346   6.966   1.488   6.825
   10ARG      O 9347   7.003   1.409   6.913
   11ARG      N 9348   6.875   1.445   6.735
   11ARG      H 9349   6.847   1.515   6.668
   11ARG     CA 9350   6.815   1.312   6.717
   11ARG     HA 9351   6.901   1.246   6.738
   11ARG     CB 9352   6.700   1.279   6.824
   11ARG    HB2 9353   6.647   1.188   6.794
   11ARG    HB3 9354   6.743   1.268   6.923
   11ARG     CG 9355   6.590   1.388   6.826
   11ARG    HG2 9356   6.640   1.483   6.842
   11ARG    HG3 9357   6.545   1.398   6.727
   11ARG     CD 9358   6.484   1.370   6.945
   11ARG    HD2 9359   6.418   1.295   6.904
   11ARG    HD3 9360   6.537   1.341   7.036
   11ARG     NE 9361   6.406   1.495   6.961
   11ARG     HE 9362   6.346   1.533   6.888
   11ARG     CZ 9363   6.425   1.582   7.057
   11ARG    NH1 9364   6.516   1.585   7.153
   11ARG   HH11 9365   6.583   1.511   7.170
   11ARG   HH12 9366   6.530   1.672   7.202
   11ARG    NH2 9367   6.349   1.688   7.059
   11ARG   HH21 9368   6.295   1.705   6.977
   11ARG   HH22 9369   6.330   1.741   7.142
   11ARG      C 9370   6.776   1.292   6.572
   11ARG      O 9371   6.731   1.394   6.514
   12LYS      N 9372   6.771   1.170   6.521
   12LYS      H 9373   6.810   1.099   6.581
   12LYS     CA 9374   6.720   1.134   6.386
   12LYS     HA 9375   6.798   1.178   6.325
   12LYS     CB 9376   6.718   0.979   6.379
   12LYS    HB2 9377   6.801   0.934   6.432
   12LYS    HB3 9378   6.634   0.944   6.438
   12LYS     CG 9379   6.723   0.916   6.245
   12LYS    HG2 9380   6.646   0.957   6.180
   12LYS    HG3 9381   6.823   0.930   6.202
   12LYS     CD 9382   6.701   0.770   6.252
   12LYS    HD2 9383   6.782   0.722   6.307
   12LYS    HD3 9384   6.605   0.747   6.297
   12LYS     CE 9385   6.693   0.718   6.102
   12LYS    HE2 9386   6.618   0.775   6.049
   12LYS    HE3 9387   6.781   0.729   6.038
   12LYS     NZ 9388   6.651   0.575   6.095
   12LYS    HZ1 9389   6.723   0.508   6.115
   12LYS    HZ2 9390   6.570   0.552   6.150
   12LYS    HZ3 9391   6.632   0.559   5.996
   12LYS      C 9392   6.590   1.197   6.334
   12LYS      O 9393   6.495   1.206   6.408
   13NHE      N 9394   6.595   1.219   6.200
   13NHE    HN1 9395   6.680   1.207   6.145
   13NHE    HN2 9396   6.514   1.249   6.148
    1ILE      N 9397   0.812   8.500   2.046
    1ILE     H1 9398   0.741   8.561   2.082
    1ILE     H2 9399   0.780   8.409   2.012
    1ILE     H3 9400   0.833   8.552   1.962
    1ILE     CA 9401   0.941   8.487   2.115
    1ILE     HA 9402   1.013   8.449   2.044
    1ILE     CB 9403   0.987   8.628   2.172
    1ILE     HB 9404   0.981   8.713   2.104
    1ILE    CG2 9405   0.892   8.657   2.290
    1ILE   HG21 9406   0.935   8.627   2.385
    1ILE   HG22 9407   0.863   8.763   2.298
    1ILE   HG23 9408   0.799   8.603   2.280
    1ILE    CG1 9409   1.139   8.637   2.207
    1ILE   HG12 9410   1.200   8.589   2.130
    1ILE   HG13 9411   1.157   8.588   2.302
    1ILE    CD1 9412   1.190   8.782   2.219
    1ILE   HD11 9413   1.144   8.836   2.302
    1ILE   HD12 9414   1.293   8.777   2.254
    1ILE   HD13 9415   1.185   8.843   2.129
    1ILE      C 9416   0.939   8.374   2.217
    1ILE      O 9417   0.834   8.351   2.275
    2LEU      N 9418   1.052   8.307   2.235
    2LEU      H 9419   1.132   8.338   2.183
    2LEU     CA 9420   1.077   8.223   2.354
    2LEU     HA 9421   0.988   8.211   2.418
    2LEU     CB 9422   1.109   8.080   2.316
    2LEU    HB2 9423   1.216   8.076   2.297
    2LEU    HB3 9424   1.089   8.015   2.401
    2LEU     CG 9425   1.041   8.019   2.194
    2LEU     HG 9426   1.067   8.066   2.099
    2LEU    CD1 9427   1.103   7.874   2.169
    2LEU   HD11 9428   1.197   7.888   2.117
    2LEU   HD12 9429   1.118   7.824   2.265
    2LEU   HD13 9430   1.040   7.805   2.112
    2LEU    CD2 9431   0.895   8.003   2.211
    2LEU   HD21 9432   0.880   7.967   2.313
    2LEU   HD22 9433   0.852   8.104   2.215
    2LEU   HD23 9434   0.843   7.942   2.138
    2LEU      C 9435   1.188   8.278   2.446
    2LEU      O 9436   1.278   8.353   2.404
    3ARG      N 9437   1.172   8.254   2.574
    3ARG      H 9438   1.093   8.196   2.601
    3ARG     CA 9439   1.257   8.309   2.682
    3ARG     HA 9440   1.346   8.352   2.636
    3ARG     CB 9441   1.190   8.427   2.760
    3ARG    HB2 9442   1.269   8.476   2.816
    3ARG    HB3 9443   1.162   8.499   2.682
    3ARG     CG 9444   1.068   8.397   2.852
    3ARG    HG2 9445   0.988   8.345   2.801
    3ARG    HG3 9446   1.101   8.340   2.938
    3ARG     CD 9447   1.005   8.521   2.916
    3ARG    HD2 9448   0.956   8.487   3.009
    3ARG    HD3 9449   1.085   8.583   2.957
    3ARG     NE 9450   0.912   8.592   2.836
    3ARG     HE 9451   0.819   8.554   2.837
    3ARG     CZ 9452   0.933   8.710   2.776
    3ARG    NH1 9453   1.036   8.787   2.803
    3ARG   HH11 9454   1.120   8.750   2.843
    3ARG   HH12 9455   1.049   8.878   2.765
    3ARG    NH2 9456   0.836   8.751   2.691
    3ARG   HH21 9457   0.750   8.701   2.677
    3ARG   HH22 9458   0.847   8.845   2.652
    3ARG      C 9459   1.301   8.205   2.783
    3ARG      O 9460   1.242   8.098   2.795
    4TRP      N 9461   1.421   8.225   2.838
    4TRP      H 9462   1.466   8.315   2.828
    4TRP     CA 9463   1.490   8.124   2.923
    4TRP     HA 9464   1.417   8.051   2.960
    4TRP     CB 9465   1.593   8.048   2.830
    4TRP    HB2 9466   1.646   8.118   2.765
    4TRP    HB3 9467   1.658   7.982   2.887
    4TRP     CG 9468   1.530   7.956   2.730
    4TRP    CD1 9469   1.483   7.833   2.757
    4TRP    HD1 9470   1.482   7.784   2.853
    4TRP    NE1 9471   1.445   7.774   2.641
    4TRP    HE1 9472   1.400   7.682   2.640
    4TRP    CE2 9473   1.462   7.855   2.533
    4TRP    CZ2 9474   1.437   7.847   2.396
    4TRP    HZ2 9475   1.398   7.762   2.342
    4TRP    CH2 9476   1.459   7.960   2.317
    4TRP    HH2 9477   1.445   7.960   2.210
    4TRP    CZ3 9478   1.483   8.084   2.373
    4TRP    HZ3 9479   1.500   8.168   2.306
    4TRP    CE3 9480   1.511   8.101   2.512
    4TRP    HE3 9481   1.534   8.198   2.556
    4TRP    CD2 9482   1.504   7.983   2.595
    4TRP      C 9483   1.569   8.194   3.047
    4TRP      O 9484   1.585   8.316   3.045
    5PRO      N 9485   1.621   8.117   3.141
    5PRO     CD 9486   1.569   7.986   3.166
    5PRO    HD2 9487   1.632   7.909   3.122
    5PRO    HD3 9488   1.464   7.968   3.135
    5PRO     CG 9489   1.577   7.972   3.321
    5PRO    HG2 9490   1.582   7.868   3.354
    5PRO    HG3 9491   1.487   8.015   3.365
    5PRO     CB 9492   1.705   8.045   3.351
    5PRO    HB2 9493   1.793   7.986   3.322
    5PRO    HB3 9494   1.698   8.077   3.455
    5PRO     CA 9495   1.698   8.163   3.256
    5PRO     HA 9496   1.640   8.242   3.304
    5PRO      C 9497   1.837   8.218   3.222
    5PRO      O 9498   1.877   8.184   3.107
    6TRP      N 9499   1.920   8.276   3.308
    6TRP      H 9500   1.869   8.304   3.391
    6TRP     CA 9501   2.065   8.314   3.283
    6TRP     HA 9502   2.077   8.354   3.182
    6TRP     CB 9503   2.099   8.430   3.384
    6TRP    HB2 9504   2.071   8.397   3.484
    6TRP    HB3 9505   2.205   8.457   3.391
    6TRP     CG 9506   2.037   8.568   3.355
    6TRP    CD1 9507   1.922   8.616   3.409
    6TRP    HD1 9508   1.872   8.559   3.488
    6TRP    NE1 9509   1.879   8.740   3.355
    6TRP    HE1 9510   1.790   8.779   3.381
    6TRP    CE2 9511   1.959   8.765   3.248
    6TRP    CZ2 9512   1.960   8.866   3.150
    6TRP    HZ2 9513   1.876   8.933   3.142
    6TRP    CH2 9514   2.060   8.879   3.056
    6TRP    HH2 9515   2.045   8.957   2.983
    6TRP    CZ3 9516   2.165   8.786   3.045
    6TRP    HZ3 9517   2.239   8.792   2.967
    6TRP    CE3 9518   2.163   8.680   3.141
    6TRP    HE3 9519   2.244   8.607   3.140
    6TRP    CD2 9520   2.064   8.667   3.246
    6TRP      C 9521   2.162   8.204   3.294
    6TRP      O 9522   2.280   8.218   3.255
    7TRP      N 9523   2.117   8.087   3.346
    7TRP      H 9524   2.020   8.089   3.374
    7TRP     CA 9525   2.204   7.974   3.380
    7TRP     HA 9526   2.289   8.015   3.434
    7TRP     CB 9527   2.123   7.874   3.464
    7TRP    HB2 9528   2.082   7.797   3.401
    7TRP    HB3 9529   2.196   7.819   3.522
    7TRP     CG 9530   2.022   7.917   3.569
    7TRP    CD1 9531   1.924   7.840   3.624
    7TRP    HD1 9532   1.909   7.736   3.598
    7TRP    NE1 9533   1.846   7.903   3.717
    7TRP    HE1 9534   1.766   7.854   3.755
    7TRP    CE2 9535   1.898   8.031   3.736
    7TRP    CZ2 9536   1.858   8.129   3.824
    7TRP    HZ2 9537   1.772   8.109   3.889
    7TRP    CH2 9538   1.921   8.254   3.823
    7TRP    HH2 9539   1.890   8.328   3.896
    7TRP    CZ3 9540   2.027   8.275   3.734
    7TRP    HZ3 9541   2.072   8.374   3.726
    7TRP    CE3 9542   2.076   8.165   3.657
    7TRP    HE3 9543   2.170   8.172   3.605
    7TRP    CD2 9544   2.008   8.040   3.648
    7TRP      C 9545   2.255   7.915   3.252
    7TRP      O 9546   2.178   7.909   3.155
    8PRO      N 9547   2.375   7.852   3.245
    8PRO     CD 9548   2.465   7.821   3.355
    8PRO    HD2 9549   2.412   7.767   3.435
    8PRO    HD3 9550   2.508   7.915   3.390
    8PRO     CG 9551   2.565   7.723   3.296
    8PRO    HG2 9552   2.536   7.621   3.321
    8PRO    HG3 9553   2.662   7.738   3.341
    8PRO     CB 9554   2.567   7.753   3.144
    8PRO    HB2 9555   2.581   7.660   3.089
    8PRO    HB3 9556   2.635   7.837   3.123
    8PRO     CA 9557   2.426   7.802   3.116
    8PRO     HA 9558   2.439   7.881   3.043
    8PRO      C 9559   2.345   7.689   3.055
    8PRO      O 9560   2.334   7.578   3.117
    9TRP      N 9561   2.288   7.719   2.936
    9TRP      H 9562   2.297   7.810   2.899
    9TRP     CA 9563   2.214   7.622   2.851
    9TRP     HA 9564   2.248   7.519   2.864
    9TRP     CB 9565   2.062   7.638   2.885
    9TRP    HB2 9566   2.046   7.745   2.880
    9TRP    HB3 9567   2.007   7.586   2.807
    9TRP     CG 9568   2.017   7.598   3.028
    9TRP    CD1 9569   1.959   7.670   3.128
    9TRP    HD1 9570   1.925   7.771   3.122
    9TRP    NE1 9571   1.938   7.594   3.243
    9TRP    HE1 9572   1.895   7.622   3.330
    9TRP    CE2 9573   2.000   7.471   3.233
    9TRP    CZ2 9574   2.012   7.356   3.314
    9TRP    HZ2 9575   1.972   7.357   3.413
    9TRP    CH2 9576   2.057   7.237   3.259
    9TRP    HH2 9577   2.054   7.153   3.325
    9TRP    CZ3 9578   2.100   7.235   3.125
    9TRP    HZ3 9579   2.138   7.140   3.091
    9TRP    CE3 9580   2.094   7.351   3.042
    9TRP    HE3 9581   2.118   7.342   2.938
    9TRP    CD2 9582   2.047   7.471   3.097
    9TRP      C 9583   2.237   7.656   2.702
    9TRP      O 9584   2.205   7.763   2.655
   10ARG      N 9585   2.290   7.560   2.628
   10ARG      H 9586   2.333   7.483   2.679
   10ARG     CA 9587   2.305   7.570   2.489
   10ARG     HA 9588   2.339   7.670   2.464
   10ARG     CB 9589   2.403   7.462   2.446
   10ARG    HB2 9590   2.366   7.363   2.475
   10ARG    HB3 9591   2.396   7.460   2.336
   10ARG     CG 9592   2.546   7.477   2.490
   10ARG    HG2 9593   2.575   7.575   2.449
   10ARG    HG3 9594   2.560   7.495   2.596
   10ARG     CD 9595   2.640   7.361   2.437
   10ARG    HD2 9596   2.744   7.386   2.453
   10ARG    HD3 9597   2.611   7.264   2.479
   10ARG     NE 9598   2.636   7.356   2.287
   10ARG     HE 9599   2.671   7.438   2.241
   10ARG     CZ 9600   2.574   7.259   2.217
   10ARG    NH1 9601   2.480   7.186   2.273
   10ARG   HH11 9602   2.432   7.209   2.359
   10ARG   HH12 9603   2.450   7.106   2.219
   10ARG    NH2 9604   2.608   7.235   2.091
   10ARG   HH21 9605   2.691   7.270   2.047
   10ARG   HH22 9606   2.554   7.165   2.044
   10ARG      C 9607   2.170   7.548   2.420
   10ARG      O 9608   2.088   7.465   2.463
   11ARG      N 9609   2.136   7.621   2.312
   11ARG      H 9610   2.206   7.688   2.284
   11ARG     CA 9611   2.017   7.613   2.227
   11ARG     HA 9612   1.999   7.505   2.221
   11ARG     CB 9613   1.887   7.682   2.292
   11ARG    HB2 9614   1.808   7.690   2.217
   11ARG    HB3 9615   1.853   7.623   2.378
   11ARG     CG 9616   1.914   7.828   2.335
   11ARG    HG2 9617   2.001   7.826   2.400
   11ARG    HG3 9618   1.945   7.887   2.249
   11ARG     CD 9619   1.794   7.893   2.420
   11ARG    HD2 9620   1.726   7.922   2.342
   11ARG    HD3 9621   1.756   7.819   2.490
   11ARG     NE 9622   1.842   8.017   2.486
   11ARG     HE 9623   1.876   8.098   2.434
   11ARG     CZ 9624   1.871   8.026   2.613
   11ARG    NH1 9625   1.873   7.934   2.707
   11ARG   HH11 9626   1.843   7.838   2.693
   11ARG   HH12 9627   1.922   7.954   2.793
   11ARG    NH2 9628   1.913   8.141   2.658
   11ARG   HH21 9629   1.938   8.210   2.588
   11ARG   HH22 9630   1.905   8.170   2.754
   11ARG      C 9631   2.050   7.661   2.087
   11ARG      O 9632   2.131   7.756   2.080
   12LYS      N 9633   1.981   7.616   1.983
   12LYS      H 9634   1.919   7.540   2.005
   12LYS     CA 9635   1.993   7.665   1.843
   12LYS     HA 9636   2.090   7.626   1.818
   12LYS     CB 9637   1.879   7.595   1.763
   12LYS    HB2 9638   1.861   7.493   1.795
   12LYS    HB3 9639   1.785   7.642   1.788
   12LYS     CG 9640   1.897   7.582   1.616
   12LYS    HG2 9641   1.920   7.678   1.571
   12LYS    HG3 9642   1.975   7.508   1.595
   12LYS     CD 9643   1.774   7.531   1.550
   12LYS    HD2 9644   1.752   7.430   1.583
   12LYS    HD3 9645   1.690   7.598   1.569
   12LYS     CE 9646   1.801   7.537   1.393
   12LYS    HE2 9647   1.832   7.638   1.367
   12LYS    HE3 9648   1.881   7.476   1.352
   12LYS     NZ 9649   1.678   7.509   1.315
   12LYS    HZ1 9650   1.653   7.411   1.307
   12LYS    HZ2 9651   1.596   7.560   1.344
   12LYS    HZ3 9652   1.703   7.533   1.219
   12LYS      C 9653   2.000   7.815   1.814
   12LYS      O 9654   1.927   7.890   1.874
   13NHE      N 9655   2.081   7.842   1.709
   13NHE    HN1 9656   2.139   7.771   1.664
   13NHE    HN2 9657   2.089   7.934   1.669
    1ILE      N 9658   9.501   7.488   2.363
    1ILE     H1 9659   9.560   7.512   2.285
    1ILE     H2 9660   9.526   7.402   2.412
    1ILE     H3 9661   9.530   7.561   2.426
    1ILE     CA 9662   9.355   7.502   2.353
    1ILE     HA 9663   9.317   7.507   2.454
    1ILE     CB 9664   9.318   7.633   2.272
    1ILE     HB 9665   9.371   7.725   2.299
    1ILE    CG2 9666   9.356   7.602   2.126
    1ILE   HG21 9667   9.270   7.566   2.069
    1ILE   HG22 9668   9.398   7.688   2.072
    1ILE   HG23 9669   9.430   7.524   2.120
    1ILE    CG1 9670   9.172   7.683   2.293
    1ILE   HG12 9671   9.143   7.676   2.398
    1ILE   HG13 9672   9.105   7.621   2.234
    1ILE    CD1 9673   9.151   7.830   2.251
    1ILE   HD11 9674   9.165   7.845   2.144
    1ILE   HD12 9675   9.044   7.850   2.259
    1ILE   HD13 9676   9.207   7.905   2.306
    1ILE      C 9677   9.291   7.374   2.303
    1ILE      O 9678   9.352   7.306   2.223
    2LEU      N 9679   9.169   7.345   2.351
    2LEU      H 9680   9.129   7.412   2.414
    2LEU     CA 9681   9.079   7.249   2.285
    2LEU     HA 9682   9.126   7.194   2.202
    2LEU     CB 9683   9.039   7.136   2.379
    2LEU    HB2 9684   8.952   7.172   2.435
    2LEU    HB3 9685   9.006   7.051   2.320
    2LEU     CG 9686   9.139   7.087   2.482
    2LEU     HG 9687   9.169   7.160   2.557
    2LEU    CD1 9688   9.068   6.979   2.575
    2LEU   HD11 9689   9.011   7.035   2.649
    2LEU   HD12 9690   9.002   6.917   2.514
    2LEU   HD13 9691   9.134   6.909   2.626
    2LEU    CD2 9692   9.257   7.021   2.419
    2LEU   HD21 9693   9.218   6.960   2.338
    2LEU   HD22 9694   9.313   7.098   2.367
    2LEU   HD23 9695   9.322   6.965   2.485
    2LEU      C 9696   8.952   7.314   2.227
    2LEU      O 9697   8.907   7.422   2.270
    3ARG      N 9698   8.905   7.257   2.117
    3ARG      H 9699   8.950   7.173   2.086
    3ARG     CA 9700   8.794   7.311   2.035
    3ARG     HA 9701   8.745   7.390   2.093
    3ARG     CB 9702   8.842   7.380   1.904
    3ARG    HB2 9703   8.758   7.438   1.867
    3ARG    HB3 9704   8.915   7.454   1.936
    3ARG     CG 9705   8.903   7.292   1.790
    3ARG    HG2 9706   8.985   7.229   1.823
    3ARG    HG3 9707   8.824   7.230   1.746
    3ARG     CD 9708   8.953   7.370   1.669
    3ARG    HD2 9709   8.949   7.302   1.583
    3ARG    HD3 9710   8.878   7.444   1.641
    3ARG     NE 9711   9.085   7.423   1.681
    3ARG     HE 9712   9.158   7.358   1.660
    3ARG     CZ 9713   9.117   7.552   1.701
    3ARG    NH1 9714   9.029   7.650   1.687
    3ARG   HH11 9715   8.931   7.635   1.695
    3ARG   HH12 9716   9.053   7.747   1.693
    3ARG    NH2 9717   9.247   7.578   1.725
    3ARG   HH21 9718   9.319   7.508   1.724
    3ARG   HH22 9719   9.274   7.677   1.731
    3ARG      C 9720   8.690   7.207   2.000
    3ARG      O 9721   8.715   7.087   2.005
    4TRP      N 9722   8.565   7.251   1.988
    4TRP      H 9723   8.548   7.351   1.981
    4TRP     CA 9724   8.447   7.162   1.973
    4TRP     HA 9725   8.480   7.063   1.940
    4TRP     CB 9726   8.383   7.147   2.117
    4TRP    HB2 9727   8.379   7.243   2.168
    4TRP    HB3 9728   8.287   7.094   2.113
    4TRP     CG 9729   8.464   7.065   2.212
    4TRP    CD1 9730   8.468   6.931   2.214
    4TRP    HD1 9731   8.417   6.863   2.147
    4TRP    NE1 9732   8.541   6.890   2.322
    4TRP    HE1 9733   8.562   6.792   2.338
    4TRP    CE2 9734   8.589   6.995   2.394
    4TRP    CZ2 9735   8.670   7.011   2.507
    4TRP    HZ2 9736   8.710   6.933   2.569
    4TRP    CH2 9737   8.708   7.140   2.544
    4TRP    HH2 9738   8.768   7.160   2.632
    4TRP    CZ3 9739   8.687   7.249   2.462
    4TRP    HZ3 9740   8.719   7.346   2.498
    4TRP    CE3 9741   8.605   7.241   2.345
    4TRP    HE3 9742   8.584   7.328   2.282
    4TRP    CD2 9743   8.551   7.112   2.311
    4TRP      C 9744   8.338   7.223   1.869
    4TRP      O 9745   8.349   7.341   1.835
    5PRO      N 9746   8.235   7.148   1.833
    5PRO     CD 9747   8.243   7.005   1.838
    5PRO    HD2 9748   8.192   6.965   1.925
    5PRO    HD3 9749   8.345   6.962   1.834
    5PRO     CG 9750   8.165   6.959   1.711
    5PRO    HG2 9751   8.126   6.858   1.720
    5PRO    HG3 9752   8.234   6.960   1.626
    5PRO     CB 9753   8.055   7.061   1.705
    5PRO    HB2 9754   7.978   7.042   1.782
    5PRO    HB3 9755   8.022   7.064   1.602
    5PRO     CA 9756   8.127   7.189   1.745
    5PRO     HA 9757   8.171   7.231   1.655
    5PRO      C 9758   8.030   7.293   1.806
    5PRO      O 9759   8.039   7.300   1.931
    6TRP      N 9760   7.932   7.353   1.741
    6TRP      H 9761   7.945   7.343   1.641
    6TRP     CA 9762   7.823   7.440   1.801
    6TRP     HA 9763   7.865   7.504   1.879
    6TRP     CB 9764   7.772   7.535   1.685
    6TRP    HB2 9765   7.746   7.472   1.600
    6TRP    HB3 9766   7.682   7.592   1.708
    6TRP     CG 9767   7.867   7.647   1.642
    6TRP    CD1 9768   7.953   7.642   1.537
    6TRP    HD1 9769   7.950   7.556   1.470
    6TRP    NE1 9770   8.039   7.754   1.526
    6TRP    HE1 9771   8.113   7.755   1.458
    6TRP    CE2 9772   8.022   7.827   1.639
    6TRP    CZ2 9773   8.084   7.943   1.689
    6TRP    HZ2 9774   8.175   7.979   1.643
    6TRP    CH2 9775   8.041   8.009   1.803
    6TRP    HH2 9776   8.101   8.092   1.834
    6TRP    CZ3 9777   7.935   7.961   1.882
    6TRP    HZ3 9778   7.905   8.008   1.974
    6TRP    CE3 9779   7.873   7.840   1.834
    6TRP    HE3 9780   7.788   7.800   1.888
    6TRP    CD2 9781   7.911   7.773   1.712
    6TRP      C 9782   7.712   7.368   1.864
    6TRP      O 9783   7.628   7.429   1.935
    7TRP      N 9784   7.704   7.235   1.842
    7TRP      H 9785   7.777   7.198   1.783
    7TRP     CA 9786   7.591   7.151   1.883
    7TRP     HA 9787   7.501   7.203   1.853
    7TRP     CB 9788   7.605   7.013   1.816
    7TRP    HB2 9789   7.653   6.944   1.883
    7TRP    HB3 9790   7.504   6.973   1.810
    7TRP     CG 9791   7.656   6.996   1.674
    7TRP    CD1 9792   7.701   6.881   1.617
    7TRP    HD1 9793   7.706   6.787   1.670
    7TRP    NE1 9794   7.742   6.892   1.487
    7TRP    HE1 9795   7.785   6.813   1.442
    7TRP    CE2 9796   7.714   7.022   1.445
    7TRP    CZ2 9797   7.730   7.079   1.320
    7TRP    HZ2 9798   7.772   7.019   1.240
    7TRP    CH2 9799   7.700   7.214   1.301
    7TRP    HH2 9800   7.710   7.255   1.201
    7TRP    CZ3 9801   7.651   7.289   1.409
    7TRP    HZ3 9802   7.634   7.396   1.398
    7TRP    CE3 9803   7.619   7.222   1.532
    7TRP    HE3 9804   7.562   7.270   1.608
    7TRP    CD2 9805   7.658   7.087   1.558
    7TRP      C 9806   7.591   7.143   2.033
    7TRP      O 9807   7.700   7.135   2.092
    8PRO      N 9808   7.476   7.126   2.104
    8PRO     CD 9809   7.343   7.101   2.051
    8PRO    HD2 9810   7.343   7.016   1.981
    8PRO    HD3 9811   7.308   7.193   2.004
    8PRO     CG 9812   7.262   7.057   2.172
    8PRO    HG2 9813   7.256   6.948   2.175
    8PRO    HG3 9814   7.160   7.092   2.162
    8PRO     CB 9815   7.333   7.120   2.294
    8PRO    HB2 9816   7.326   7.052   2.379
    8PRO    HB3 9817   7.300   7.224   2.308
    8PRO     CA 9818   7.478   7.125   2.252
    8PRO     HA 9819   7.515   7.219   2.292
    8PRO      C 9820   7.554   7.009   2.313
    8PRO      O 9821   7.514   6.890   2.294
    9TRP      N 9822   7.662   7.045   2.386
    9TRP      H 9823   7.688   7.141   2.391
    9TRP     CA 9824   7.745   6.953   2.467
    9TRP     HA 9825   7.689   6.866   2.504
    9TRP     CB 9826   7.866   6.910   2.377
    9TRP    HB2 9827   7.904   7.004   2.340
    9TRP    HB3 9828   7.938   6.862   2.444
    9TRP     CG 9829   7.834   6.826   2.251
    9TRP    CD1 9830   7.855   6.850   2.119
    9TRP    HD1 9831   7.908   6.933   2.077
    9TRP    NE1 9832   7.808   6.748   2.037
    9TRP    HE1 9833   7.814   6.739   1.937
    9TRP    CE2 9834   7.734   6.657   2.111
    9TRP    CZ2 9835   7.665   6.537   2.085
    9TRP    HZ2 9836   7.656   6.502   1.983
    9TRP    CH2 9837   7.626   6.455   2.189
    9TRP    HH2 9838   7.582   6.361   2.159
    9TRP    CZ3 9839   7.646   6.497   2.321
    9TRP    HZ3 9840   7.610   6.430   2.397
    9TRP    CE3 9841   7.711   6.620   2.351
    9TRP    HE3 9842   7.734   6.644   2.454
    9TRP    CD2 9843   7.752   6.703   2.246
    9TRP      C 9844   7.797   7.025   2.593
    9TRP      O 9845   7.867   7.123   2.586
   10ARG      N 9846   7.764   6.971   2.709
   10ARG      H 9847   7.689   6.903   2.707
   10ARG     CA 9848   7.814   7.017   2.832
   10ARG     HA 9849   7.815   7.125   2.831
   10ARG     CB 9850   7.726   6.959   2.942
   10ARG    HB2 9851   7.725   6.850   2.937
   10ARG    HB3 9852   7.780   6.980   3.035
   10ARG     CG 9853   7.584   7.010   2.949
   10ARG    HG2 9854   7.596   7.118   2.962
   10ARG    HG3 9855   7.528   7.006   2.856
   10ARG     CD 9856   7.502   6.946   3.069
   10ARG    HD2 9857   7.408   6.999   3.083
   10ARG    HD3 9858   7.489   6.837   3.055
   10ARG     NE 9859   7.570   6.974   3.199
   10ARG     HE 9860   7.576   7.072   3.223
   10ARG     CZ 9861   7.636   6.881   3.272
   10ARG    NH1 9862   7.679   6.771   3.214
   10ARG   HH11 9863   7.688   6.757   3.115
   10ARG   HH12 9864   7.713   6.700   3.278
   10ARG    NH2 9865   7.656   6.899   3.401
   10ARG   HH21 9866   7.611   6.968   3.457
   10ARG   HH22 9867   7.711   6.828   3.447
   10ARG      C 9868   7.958   6.969   2.851
   10ARG      O 9869   7.994   6.856   2.813
   11ARG      N 9870   8.049   7.049   2.908
   11ARG      H 9871   8.014   7.140   2.934
   11ARG     CA 9872   8.190   7.023   2.942
   11ARG     HA 9873   8.186   6.919   2.977
   11ARG     CB 9874   8.288   7.029   2.815
   11ARG    HB2 9875   8.392   7.028   2.849
   11ARG    HB3 9876   8.269   6.945   2.749
   11ARG     CG 9877   8.275   7.162   2.737
   11ARG    HG2 9878   8.170   7.174   2.713
   11ARG    HG3 9879   8.298   7.247   2.803
   11ARG     CD 9880   8.356   7.164   2.598
   11ARG    HD2 9881   8.456   7.186   2.632
   11ARG    HD3 9882   8.343   7.067   2.549
   11ARG     NE 9883   8.310   7.278   2.516
   11ARG     HE 9884   8.319   7.375   2.544
   11ARG     CZ 9885   8.230   7.266   2.412
   11ARG    NH1 9886   8.168   7.161   2.363
   11ARG   HH11 9887   8.182   7.066   2.397
   11ARG   HH12 9888   8.093   7.176   2.299
   11ARG    NH2 9889   8.197   7.375   2.349
   11ARG   HH21 9890   8.219   7.462   2.395
   11ARG   HH22 9891   8.168   7.377   2.253
   11ARG      C 9892   8.232   7.110   3.059
   11ARG      O 9893   8.183   7.225   3.061
   12LYS      N 9894   8.329   7.070   3.140
   12LYS      H 9895   8.359   6.975   3.124
   12LYS     CA 9896   8.390   7.150   3.249
   12LYS     HA 9897   8.308   7.153   3.318
   12LYS     CB 9898   8.511   7.068   3.302
   12LYS    HB2 9899   8.492   6.961   3.302
   12LYS    HB3 9900   8.592   7.075   3.230
   12LYS     CG 9901   8.558   7.095   3.440
   12LYS    HG2 9902   8.576   7.202   3.454
   12LYS    HG3 9903   8.483   7.057   3.511
   12LYS     CD 9904   8.684   7.024   3.471
   12LYS    HD2 9905   8.668   6.916   3.469
   12LYS    HD3 9906   8.762   7.054   3.402
   12LYS     CE 9907   8.730   7.074   3.614
   12LYS    HE2 9908   8.735   7.183   3.614
   12LYS    HE3 9909   8.666   7.054   3.700
   12LYS     NZ 9910   8.867   7.026   3.648
   12LYS    HZ1 9911   8.872   6.931   3.679
   12LYS    HZ2 9912   8.936   7.040   3.576
   12LYS    HZ3 9913   8.892   7.078   3.732
   12LYS      C 9914   8.426   7.297   3.225
   12LYS      O 9915   8.480   7.329   3.121
   13NHE      N 9916   8.408   7.372   3.336
   13NHE    HN1 9917   8.363   7.337   3.420
   13NHE    HN2 9918   8.436   7.469   3.341
    1ILE      N 9919   8.966  10.697   5.861
    1ILE     H1 9920   8.908  10.739   5.931
    1ILE     H2 9921   8.918  10.663   5.778
    1ILE     H3 9922   9.013  10.780   5.830
    1ILE     CA 9923   9.074  10.605   5.900
    1ILE     HA 9924   9.145  10.601   5.818
    1ILE     CB 9925   9.145  10.656   6.033
    1ILE     HB 9926   9.172  10.762   6.036
    1ILE    CG2 9927   9.042  10.632   6.145
    1ILE   HG21 9928   9.060  10.538   6.195
    1ILE   HG22 9929   9.041  10.711   6.221
    1ILE   HG23 9930   8.942  10.627   6.106
    1ILE    CG1 9931   9.286  10.595   6.058
    1ILE   HG12 9932   9.344  10.591   5.966
    1ILE   HG13 9933   9.275  10.495   6.097
    1ILE    CD1 9934   9.370  10.676   6.159
    1ILE   HD11 9935   9.327  10.676   6.259
    1ILE   HD12 9936   9.461  10.620   6.178
    1ILE   HD13 9937   9.396  10.778   6.131
    1ILE      C 9938   9.026  10.461   5.904
    1ILE      O 9939   8.911  10.440   5.937
    2LEU      N 9940   9.114  10.367   5.869
    2LEU      H 9941   9.207  10.398   5.846
    2LEU     CA 9942   9.096  10.225   5.904
    2LEU     HA 9943   8.998  10.203   5.949
    2LEU     CB 9944   9.096  10.136   5.781
    2LEU    HB2 9945   9.201  10.113   5.760
    2LEU    HB3 9946   9.047  10.043   5.804
    2LEU     CG 9947   9.037  10.190   5.651
    2LEU     HG 9948   9.088  10.276   5.609
    2LEU    CD1 9949   9.062  10.084   5.536
    2LEU   HD11 9950   9.164  10.098   5.501
    2LEU   HD12 9951   9.048   9.983   5.576
    2LEU   HD13 9952   8.994  10.089   5.450
    2LEU    CD2 9953   8.890  10.212   5.661
    2LEU   HD21 9954   8.851  10.127   5.715
    2LEU   HD22 9955   8.874  10.295   5.730
    2LEU   HD23 9956   8.837  10.230   5.568
    2LEU      C 9957   9.201  10.173   6.004
    2LEU      O 9958   9.313  10.226   6.017
    3ARG      N 9959   9.158  10.080   6.087
    3ARG      H 9960   9.064  10.045   6.073
    3ARG     CA 9961   9.236  10.026   6.201
    3ARG     HA 9962   9.340  10.059   6.190
    3ARG     CB 9963   9.190  10.082   6.339
    3ARG    HB2 9964   9.269  10.058   6.410
    3ARG    HB3 9965   9.194  10.190   6.328
    3ARG     CG 9966   9.050  10.039   6.396
    3ARG    HG2 9967   8.969  10.058   6.326
    3ARG    HG3 9968   9.053   9.934   6.423
    3ARG     CD 9969   9.012  10.106   6.527
    3ARG    HD2 9970   8.942  10.039   6.578
    3ARG    HD3 9971   9.097  10.101   6.595
    3ARG     NE 9972   8.955  10.236   6.516
    3ARG     HE 9973   8.857  10.236   6.497
    3ARG     CZ 9974   9.015  10.352   6.546
    3ARG    NH1 9975   9.129  10.359   6.613
    3ARG   HH11 9976   9.193  10.282   6.616
    3ARG   HH12 9977   9.170  10.444   6.643
    3ARG    NH2 9978   8.947  10.464   6.513
    3ARG   HH21 9979   8.855  10.463   6.473
    3ARG   HH22 9980   8.988  10.553   6.544
    3ARG      C 9981   9.235   9.875   6.208
    3ARG      O 9982   9.149   9.808   6.150
    4TRP      N 9983   9.345   9.818   6.258
    4TRP      H 9984   9.412   9.875   6.307
    4TRP     CA 9985   9.371   9.672   6.254
    4TRP     HA 9986   9.277   9.618   6.238
    4TRP     CB 9987   9.465   9.645   6.129
    4TRP    HB2 9988   9.544   9.720   6.123
    4TRP    HB3 9989   9.500   9.542   6.127
    4TRP     CG 9990   9.397   9.660   5.997
    4TRP    CD1 9991   9.317   9.570   5.940
    4TRP    HD1 9992   9.287   9.474   5.981
    4TRP    NE1 9993   9.284   9.612   5.814
    4TRP    HE1 9994   9.218   9.560   5.756
    4TRP    CE2 9995   9.340   9.733   5.785
    4TRP    CZ2 9996   9.336   9.821   5.676
    4TRP    HZ2 9997   9.286   9.805   5.581
    4TRP    CH2 9998   9.399   9.944   5.688
    4TRP    HH2 9999   9.403  10.016   5.608
    4TRP    CZ310000   9.445   9.991   5.811
    4TRP    HZ310001   9.493  10.088   5.813
    4TRP    CE310002   9.452   9.907   5.926
    4TRP    HE310003   9.493   9.942   6.021
    4TRP    CD210004   9.402   9.773   5.913
    4TRP      C10005   9.443   9.620   6.390
    4TRP      O10006   9.491   9.704   6.467
    5PRO      N10007   9.458   9.490   6.409
    5PRO     CD10008   9.371   9.396   6.345
    5PRO    HD210009   9.418   9.349   6.259
    5PRO    HD310010   9.272   9.434   6.315
    5PRO     CG10011   9.349   9.285   6.454
    5PRO    HG210012   9.322   9.189   6.411
    5PRO    HG310013   9.267   9.317   6.519
    5PRO     CB10014   9.485   9.281   6.519
    5PRO    HB210015   9.559   9.230   6.455
    5PRO    HB310016   9.469   9.240   6.618
    5PRO     CA10017   9.524   9.427   6.523
    5PRO     HA10018   9.481   9.470   6.613
    5PRO      C10019   9.677   9.446   6.527
    5PRO      O10020   9.725   9.482   6.416
    6TRP      N10021   9.756   9.409   6.626
    6TRP      H10022   9.701   9.391   6.709
    6TRP     CA10023   9.908   9.407   6.625
    6TRP     HA10024   9.946   9.496   6.575
    6TRP     CB10025   9.954   9.417   6.777
    6TRP    HB210026   9.902   9.339   6.832
    6TRP    HB310027  10.060   9.400   6.794
    6TRP     CG10028   9.935   9.553   6.846
    6TRP    CD110029   9.828   9.588   6.923
    6TRP    HD110030   9.754   9.512   6.949
    6TRP    NE110031   9.828   9.724   6.964
    6TRP    HE110032   9.750   9.762   7.014
    6TRP    CE210033   9.928   9.785   6.896
    6TRP    CZ210034   9.971   9.918   6.888
    6TRP    HZ210035   9.910   9.997   6.928
    6TRP    CH210036  10.085   9.957   6.820
    6TRP    HH210037  10.104  10.063   6.815
    6TRP    CZ310038  10.163   9.866   6.747
    6TRP    HZ310039  10.249   9.896   6.688
    6TRP    CE310040  10.119   9.730   6.750
    6TRP    HE310041  10.177   9.654   6.700
    6TRP    CD210042  10.004   9.684   6.827
    6TRP      C10043   9.970   9.293   6.558
    6TRP      O10044  10.093   9.292   6.533
    7TRP      N10045   9.889   9.190   6.525
    7TRP      H10046   9.793   9.203   6.551
    7TRP     CA10047   9.937   9.061   6.473
    7TRP     HA10048  10.019   9.031   6.536
    7TRP     CB10049   9.821   8.961   6.475
    7TRP    HB210050   9.772   8.958   6.379
    7TRP    HB310051   9.867   8.863   6.480
    7TRP     CG10052   9.718   8.956   6.587
    7TRP    CD110053   9.596   8.895   6.583
    7TRP    HD110054   9.559   8.842   6.496
    7TRP    NE110055   9.523   8.906   6.698
    7TRP    HE110056   9.428   8.871   6.699
    7TRP    CE210057   9.601   8.970   6.793
    7TRP    CZ210058   9.574   8.997   6.926
    7TRP    HZ210059   9.477   8.968   6.966
    7TRP    CH210060   9.666   9.068   7.003
    7TRP    HH210061   9.644   9.084   7.108
    7TRP    CZ310062   9.788   9.108   6.945
    7TRP    HZ310063   9.857   9.170   7.001
    7TRP    CE310064   9.819   9.063   6.813
    7TRP    HE310065   9.919   9.072   6.773
    7TRP    CD210066   9.724   8.999   6.728
    7TRP      C10067   9.991   9.084   6.335
    7TRP      O10068   9.933   9.164   6.261
    8PRO      N10069  10.091   9.007   6.284
    8PRO     CD10070  10.150   8.888   6.343
    8PRO    HD210071  10.073   8.816   6.371
    8PRO    HD310072  10.210   8.920   6.429
    8PRO     CG10073  10.231   8.825   6.230
    8PRO    HG210074  10.172   8.746   6.184
    8PRO    HG310075  10.319   8.778   6.270
    8PRO     CB10076  10.265   8.942   6.134
    8PRO    HB210077  10.264   8.906   6.031
    8PRO    HB310078  10.355   8.995   6.170
    8PRO     CA10079  10.148   9.037   6.150
    8PRO     HA10080  10.193   9.136   6.146
    8PRO      C10081  10.051   9.019   6.035
    8PRO      O10082  10.003   8.904   6.010
    9TRP      N10083  10.024   9.132   5.966
    9TRP      H10084  10.063   9.218   5.997
    9TRP     CA10085   9.944   9.139   5.842
    9TRP     HA10086   9.948   9.047   5.784
    9TRP     CB10087   9.797   9.174   5.885
    9TRP    HB210088   9.810   9.259   5.951
    9TRP    HB310089   9.744   9.203   5.794
    9TRP     CG10090   9.720   9.069   5.969
    9TRP    CD110091   9.667   9.075   6.094
    9TRP    HD110092   9.661   9.162   6.157
    9TRP    NE110093   9.609   8.955   6.134
    9TRP    HE110094   9.561   8.934   6.220
    9TRP    CE210095   9.638   8.855   6.043
    9TRP    CZ210096   9.607   8.718   6.030
    9TRP    HZ210097   9.552   8.668   6.108
    9TRP    CH210098   9.628   8.654   5.909
    9TRP    HH210099   9.593   8.552   5.904
    9TRP    CZ310100   9.691   8.723   5.804
    9TRP    HZ310101   9.708   8.666   5.715
    9TRP    CE310102   9.728   8.860   5.816
    9TRP    HE310103   9.766   8.912   5.730
    9TRP    CD210104   9.705   8.926   5.938
    9TRP      C10105   9.999   9.250   5.750
    9TRP      O10106  10.003   9.365   5.785
   10ARG      N10107  10.037   9.212   5.629
   10ARG      H10108  10.049   9.112   5.616
   10ARG     CA10109  10.077   9.302   5.529
   10ARG     HA10110  10.138   9.379   5.574
   10ARG     CB10111  10.149   9.222   5.422
   10ARG    HB210112  10.084   9.144   5.382
   10ARG    HB310113  10.160   9.292   5.338
   10ARG     CG10114  10.282   9.162   5.459
   10ARG    HG210115  10.341   9.249   5.490
   10ARG    HG310116  10.282   9.103   5.551
   10ARG     CD10117  10.350   9.084   5.340
   10ARG    HD210118  10.453   9.060   5.364
   10ARG    HD310119  10.290   8.996   5.310
   10ARG     NE10120  10.370   9.176   5.223
   10ARG     HE10121  10.432   9.252   5.239
   10ARG     CZ10122  10.298   9.169   5.109
   10ARG    NH110123  10.181   9.110   5.108
   10ARG   HH1110124  10.126   9.087   5.190
   10ARG   HH1210125  10.140   9.095   5.017
   10ARG    NH210126  10.344   9.220   4.997
   10ARG   HH2110127  10.439   9.248   4.982
   10ARG   HH2210128  10.283   9.216   4.917
   10ARG      C10129   9.954   9.370   5.468
   10ARG      O10130   9.847   9.308   5.450
   11ARG      N10131   9.958   9.500   5.435
   11ARG      H10132  10.046   9.545   5.455
   11ARG     CA10133   9.856   9.585   5.370
   11ARG     HA10134   9.813   9.515   5.297
   11ARG     CB10135   9.740   9.631   5.470
   11ARG    HB210136   9.679   9.708   5.422
   11ARG    HB310137   9.678   9.546   5.499
   11ARG     CG10138   9.796   9.701   5.597
   11ARG    HG210139   9.868   9.633   5.641
   11ARG    HG310140   9.855   9.788   5.568
   11ARG     CD10141   9.684   9.731   5.708
   11ARG    HD210142   9.639   9.821   5.671
   11ARG    HD310143   9.618   9.645   5.716
   11ARG     NE10144   9.751   9.764   5.837
   11ARG     HE10145   9.812   9.844   5.849
   11ARG     CZ10146   9.760   9.681   5.938
   11ARG    NH110147   9.723   9.555   5.950
   11ARG   HH1110148   9.671   9.505   5.878
   11ARG   HH1210149   9.760   9.501   6.026
   11ARG    NH210150   9.821   9.723   6.045
   11ARG   HH2110151   9.874   9.808   6.036
   11ARG   HH2210152   9.805   9.685   6.137
   11ARG      C10153   9.923   9.696   5.294
   11ARG      O10154  10.025   9.745   5.347
   12LYS      N10155   9.863   9.750   5.188
   12LYS      H10156   9.780   9.701   5.159
   12LYS     CA10157   9.909   9.870   5.113
   12LYS     HA10158   9.997   9.829   5.066
   12LYS     CB10159   9.796   9.905   5.012
   12LYS    HB210160   9.748   9.817   4.971
   12LYS    HB310161   9.715   9.951   5.066
   12LYS     CG10162   9.834   9.982   4.891
   12LYS    HG210163   9.889  10.072   4.919
   12LYS    HG310164   9.893   9.919   4.824
   12LYS     CD10165   9.716  10.025   4.814
   12LYS    HD210166   9.663   9.938   4.774
   12LYS    HD310167   9.650  10.086   4.875
   12LYS     CE10168   9.768  10.119   4.698
   12LYS    HE210169   9.828  10.199   4.741
   12LYS    HE310170   9.836  10.077   4.623
   12LYS     NZ10171   9.657  10.185   4.625
   12LYS    HZ110172   9.610  10.128   4.557
   12LYS    HZ210173   9.587  10.229   4.683
   12LYS    HZ310174   9.702  10.255   4.566
   12LYS      C10175   9.960   9.993   5.189
   12LYS      O10176   9.900  10.032   5.286
   13NHE      N10177  10.061  10.055   5.122
   13NHE    HN110178  10.106  10.015   5.040
   13NHE    HN210179  10.099  10.143   5.152
    1ILE      N10180  11.063   2.792   8.705
    1ILE     H110181  11.051   2.880   8.752
    1ILE     H210182  10.998   2.774   8.628
    1ILE     H310183  11.151   2.812   8.660
    1ILE     CA10184  11.087   2.669   8.782
    1ILE     HA10185  11.132   2.597   8.715
    1ILE     CB10186  11.183   2.699   8.905
    1ILE     HB10187  11.272   2.758   8.884
    1ILE    CG210188  11.098   2.781   9.004
    1ILE   HG2110189  11.052   2.717   9.080
    1ILE   HG2210190  11.153   2.860   9.055
    1ILE   HG2310191  11.016   2.830   8.954
    1ILE    CG110192  11.251   2.573   8.966
    1ILE   HG1210193  11.286   2.505   8.887
    1ILE   HG1310194  11.180   2.520   9.028
    1ILE    CD110195  11.374   2.606   9.053
    1ILE   HD1110196  11.349   2.663   9.141
    1ILE   HD1210197  11.407   2.513   9.099
    1ILE   HD1310198  11.458   2.653   9.002
    1ILE      C10199  10.957   2.599   8.817
    1ILE      O10200  10.859   2.668   8.839
    2LEU      N10201  10.959   2.466   8.822
    2LEU      H10202  11.047   2.422   8.805
    2LEU     CA10203  10.855   2.387   8.890
    2LEU     HA10204  10.770   2.447   8.925
    2LEU     CB10205  10.788   2.288   8.796
    2LEU    HB210206  10.851   2.198   8.797
    2LEU    HB310207  10.691   2.260   8.837
    2LEU     CG10208  10.769   2.326   8.650
    2LEU     HG10209  10.862   2.342   8.594
    2LEU    CD110210  10.711   2.201   8.572
    2LEU   HD1110211  10.795   2.135   8.550
    2LEU   HD1210212  10.637   2.150   8.635
    2LEU   HD1310213  10.657   2.223   8.480
    2LEU    CD210214  10.674   2.439   8.633
    2LEU   HD2110215  10.592   2.420   8.702
    2LEU   HD2210216  10.721   2.528   8.675
    2LEU   HD2310217  10.639   2.458   8.532
    2LEU      C10218  10.907   2.312   9.015
    2LEU      O10219  11.027   2.281   9.029
    3ARG      N10220  10.820   2.298   9.112
    3ARG      H10221  10.725   2.330   9.095
    3ARG     CA10222  10.851   2.243   9.247
    3ARG     HA10223  10.950   2.197   9.242
    3ARG     CB10224  10.862   2.353   9.357
    3ARG    HB210225  10.911   2.307   9.442
    3ARG    HB310226  10.936   2.424   9.318
    3ARG     CG10227  10.734   2.429   9.402
    3ARG    HG210228  10.680   2.474   9.320
    3ARG    HG310229  10.669   2.361   9.456
    3ARG     CD10230  10.758   2.540   9.504
    3ARG    HD210231  10.664   2.552   9.560
    3ARG    HD310232  10.823   2.501   9.583
    3ARG     NE10233  10.799   2.665   9.451
    3ARG     HE10234  10.723   2.723   9.419
    3ARG     CZ10235  10.922   2.718   9.457
    3ARG    NH110236  11.017   2.669   9.535
    3ARG   HH1110237  11.015   2.574   9.568
    3ARG   HH1210238  11.106   2.711   9.547
    3ARG    NH210239  10.942   2.831   9.386
    3ARG   HH2110240  10.869   2.878   9.336
    3ARG   HH2210241  11.033   2.877   9.398
    3ARG      C10242  10.752   2.139   9.293
    3ARG      O10243  10.640   2.130   9.244
    4TRP      N10244  10.801   2.043   9.371
    4TRP      H10245  10.893   2.054   9.412
    4TRP     CA10246  10.724   1.922   9.410
    4TRP     HA10247  10.617   1.939   9.396
    4TRP     CB10248  10.769   1.805   9.312
    4TRP    HB210249  10.877   1.806   9.297
    4TRP    HB310250  10.728   1.709   9.343
    4TRP     CG10251  10.719   1.821   9.172
    4TRP    CD110252  10.595   1.792   9.130
    4TRP    HD110253  10.513   1.755   9.191
    4TRP    NE110254  10.589   1.806   8.995
    4TRP    HE110255  10.502   1.794   8.944
    4TRP    CE210256  10.708   1.847   8.942
    4TRP    CZ210257  10.755   1.880   8.815
    4TRP    HZ210258  10.701   1.873   8.722
    4TRP    CH210259  10.884   1.931   8.803
    4TRP    HH210260  10.928   1.955   8.708
    4TRP    CZ310261  10.958   1.970   8.913
    4TRP    HZ310262  11.058   2.009   8.896
    4TRP    CE310263  10.917   1.940   9.046
    4TRP    HE310264  10.977   1.966   9.134
    4TRP    CD210265  10.790   1.873   9.063
    4TRP      C10266  10.755   1.879   9.564
    4TRP      O10267  10.851   1.930   9.622
    5PRO      N10268  10.682   1.783   9.619
    5PRO     CD10269  10.550   1.753   9.571
    5PRO    HD210270  10.550   1.664   9.508
    5PRO    HD310271  10.499   1.835   9.518
    5PRO     CG10272  10.470   1.721   9.701
    5PRO    HG210273  10.383   1.657   9.682
    5PRO    HG310274  10.433   1.815   9.743
    5PRO     CB10275  10.574   1.649   9.783
    5PRO    HB210276  10.591   1.547   9.746
    5PRO    HB310277  10.542   1.660   9.887
    5PRO     CA10278  10.699   1.729   9.754
    5PRO     HA10279  10.702   1.814   9.822
    5PRO      C10280  10.827   1.646   9.774
    5PRO      O10281  10.878   1.607   9.666
    6TRP      N10282  10.869   1.597   9.890
    6TRP      H10283  10.822   1.645   9.966
    6TRP     CA10284  10.983   1.498   9.911
    6TRP     HA10285  11.066   1.522   9.845
    6TRP     CB10286  11.034   1.521  10.059
    6TRP    HB210287  10.948   1.515  10.126
    6TRP    HB310288  11.104   1.445  10.096
    6TRP     CG10289  11.113   1.649  10.087
    6TRP    CD110290  11.061   1.765  10.136
    6TRP    HD110291  10.958   1.767  10.170
    6TRP    NE110292  11.153   1.873  10.139
    6TRP    HE110293  11.123   1.965  10.164
    6TRP    CE210294  11.264   1.832  10.072
    6TRP    CZ210295  11.383   1.897  10.034
    6TRP    HZ210296  11.391   2.004  10.043
    6TRP    CH210297  11.489   1.831   9.975
    6TRP    HH210298  11.572   1.893   9.946
    6TRP    CZ310299  11.483   1.695   9.941
    6TRP    HZ310300  11.563   1.645   9.889
    6TRP    CE310301  11.361   1.628   9.975
    6TRP    HE310302  11.351   1.522   9.955
    6TRP    CD210303  11.250   1.692  10.043
    6TRP      C10304  10.950   1.358   9.887
    6TRP      O10305  11.040   1.271   9.880
    7TRP      N10306  10.819   1.327   9.870
    7TRP      H10307  10.756   1.406   9.878
    7TRP     CA10308  10.767   1.190   9.862
    7TRP     HA10309  10.814   1.134   9.943
    7TRP     CB10310  10.614   1.194   9.875
    7TRP    HB210311  10.569   1.195   9.776
    7TRP    HB310312  10.585   1.097   9.912
    7TRP     CG10313  10.541   1.290   9.968
    7TRP    CD110314  10.410   1.324   9.963
    7TRP    HD110315  10.341   1.285   9.889
    7TRP    NE110316  10.370   1.412  10.059
    7TRP    HE110317  10.275   1.449  10.056
    7TRP    CE210318  10.478   1.435  10.144
    7TRP    CZ210319  10.484   1.511  10.260
    7TRP    HZ210320  10.395   1.564  10.292
    7TRP    CH210321  10.605   1.525  10.327
    7TRP    HH210322  10.606   1.581  10.420
    7TRP    CZ310323  10.719   1.458  10.278
    7TRP    HZ310324  10.816   1.473  10.325
    7TRP    CE310325  10.703   1.366  10.169
    7TRP    HE310326  10.782   1.298  10.143
    7TRP    CD210327  10.584   1.358  10.091
    7TRP      C10328  10.814   1.131   9.732
    7TRP      O10329  10.816   1.203   9.632
    8PRO      N10330  10.835   0.997   9.718
    8PRO     CD10331  10.806   0.893   9.815
    8PRO    HD210332  10.702   0.899   9.850
    8PRO    HD310333  10.878   0.902   9.896
    8PRO     CG10334  10.817   0.763   9.736
    8PRO    HG210335  10.718   0.731   9.705
    8PRO    HG310336  10.856   0.685   9.799
    8PRO     CB10337  10.912   0.796   9.618
    8PRO    HB210338  10.880   0.740   9.529
    8PRO    HB310339  11.017   0.786   9.651
    8PRO     CA10340  10.888   0.943   9.591
    8PRO     HA10341  10.986   0.983   9.567
    8PRO      C10342  10.795   0.958   9.472
    8PRO      O10343  10.681   0.900   9.473
    9TRP      N10344  10.844   1.035   9.373
    9TRP      H10345  10.931   1.080   9.385
    9TRP     CA10346  10.779   1.055   9.241
    9TRP     HA10347  10.717   0.971   9.210
    9TRP     CB10348  10.694   1.187   9.252
    9TRP    HB210349  10.764   1.259   9.294
    9TRP    HB310350  10.667   1.215   9.150
    9TRP     CG10351  10.574   1.187   9.349
    9TRP    CD110352  10.547   1.262   9.459
    9TRP    HD110353  10.603   1.346   9.495
    9TRP    NE110354  10.427   1.226   9.521
    9TRP    HE110355  10.383   1.267   9.602
    9TRP    CE210356  10.377   1.110   9.465
    9TRP    CZ210357  10.263   1.029   9.484
    9TRP    HZ210358  10.195   1.051   9.564
    9TRP    CH210359  10.228   0.935   9.389
    9TRP    HH210360  10.135   0.884   9.407
    9TRP    CZ310361  10.314   0.913   9.279
    9TRP    HZ310362  10.283   0.834   9.212
    9TRP    CE310363  10.432   0.989   9.260
    9TRP    HE310364  10.489   0.976   9.170
    9TRP    CD210365  10.467   1.086   9.356
    9TRP      C10366  10.886   1.072   9.132
    9TRP      O10367  10.967   1.161   9.135
   10ARG      N10368  10.882   0.985   9.032
   10ARG      H10369  10.824   0.902   9.048
   10ARG     CA10370  10.963   0.993   8.918
   10ARG     HA10371  11.063   1.022   8.949
   10ARG     CB10372  10.958   0.859   8.847
   10ARG    HB210373  10.855   0.834   8.821
   10ARG    HB310374  11.006   0.877   8.751
   10ARG     CG10375  11.021   0.742   8.918
   10ARG    HG210376  11.125   0.775   8.933
   10ARG    HG310377  10.990   0.728   9.021
   10ARG     CD10378  11.013   0.608   8.835
   10ARG    HD210379  11.077   0.532   8.879
   10ARG    HD310380  10.909   0.576   8.821
   10ARG     NE10381  11.080   0.626   8.702
   10ARG     HE10382  11.178   0.645   8.706
   10ARG     CZ10383  11.013   0.634   8.584
   10ARG    NH110384  10.886   0.667   8.583
   10ARG   HH1110385  10.836   0.710   8.660
   10ARG   HH1210386  10.840   0.656   8.494
   10ARG    NH210387  11.074   0.608   8.471
   10ARG   HH2110388  11.163   0.562   8.462
   10ARG   HH2210389  11.020   0.621   8.387
   10ARG      C10390  10.911   1.103   8.825
   10ARG      O10391  10.789   1.122   8.809
   11ARG      N10392  10.997   1.183   8.759
   11ARG      H10393  11.094   1.164   8.778
   11ARG     CA10394  10.971   1.289   8.660
   11ARG     HA10395  10.888   1.246   8.603
   11ARG     CB10396  10.921   1.426   8.727
   11ARG    HB210397  10.922   1.506   8.651
   11ARG    HB310398  10.821   1.414   8.768
   11ARG     CG10399  11.017   1.476   8.837
   11ARG    HG210400  11.030   1.395   8.907
   11ARG    HG310401  11.117   1.492   8.794
   11ARG     CD10402  10.961   1.602   8.919
   11ARG    HD210403  10.983   1.684   8.853
   11ARG    HD310404  10.855   1.586   8.940
   11ARG     NE10405  11.042   1.620   9.042
   11ARG     HE10406  11.141   1.642   9.041
   11ARG     CZ10407  11.001   1.586   9.162
   11ARG    NH110408  10.892   1.524   9.202
   11ARG   HH1110409  10.815   1.500   9.140
   11ARG   HH1210410  10.890   1.484   9.294
   11ARG    NH210411  11.083   1.607   9.261
   11ARG   HH2110412  11.178   1.631   9.238
   11ARG   HH2210413  11.053   1.618   9.357
   11ARG      C10414  11.089   1.302   8.567
   11ARG      O10415  11.201   1.287   8.619
   12LYS      N10416  11.072   1.349   8.443
   12LYS      H10417  10.975   1.358   8.417
   12LYS     CA10418  11.180   1.381   8.347
   12LYS     HA10419  11.215   1.282   8.325
   12LYS     CB10420  11.110   1.449   8.225
   12LYS    HB210421  11.013   1.405   8.203
   12LYS    HB310422  11.083   1.550   8.253
   12LYS     CG10423  11.181   1.444   8.094
   12LYS    HG210424  11.283   1.481   8.104
   12LYS    HG310425  11.179   1.341   8.056
   12LYS     CD10426  11.114   1.527   7.992
   12LYS    HD210427  11.014   1.488   7.971
   12LYS    HD310428  11.108   1.631   8.025
   12LYS     CE10429  11.207   1.526   7.864
   12LYS    HE210430  11.307   1.557   7.893
   12LYS    HE310431  11.225   1.431   7.813
   12LYS     NZ10432  11.161   1.623   7.761
   12LYS    HZ110433  11.083   1.593   7.705
   12LYS    HZ210434  11.142   1.716   7.796
   12LYS    HZ310435  11.237   1.626   7.693
   12LYS      C10436  11.304   1.458   8.393
   12LYS      O10437  11.291   1.553   8.467
   13NHE      N10438  11.415   1.418   8.328
   13NHE    HN110439  11.417   1.337   8.266
   13NHE    HN210440  11.504   1.465   8.338
  12.50000  12.50000  12.50000
