4QHU_QSPVLIYDDT_UNCAPPED in water
 5107
   43ACE    CH3    1   1.785   2.194   2.717  0.3342 -0.2032 -0.2624
   43ACE   HH31    2   1.741   2.280   2.769  1.1261  1.0982 -1.6523
   43ACE   HH32    3   1.708   2.124   2.685  0.2410 -0.1978 -0.0562
   43ACE   HH33    4   1.848   2.152   2.795 -1.4348 -0.6229  1.0246
   43ACE      C    5   1.862   2.241   2.599 -0.1364  0.1284 -0.4584
   43ACE      O    6   1.910   2.357   2.591  0.1027  0.0418  0.0481
   44VAL      N    7   1.898   2.146   2.514  0.3317 -0.0883 -0.1614
   44VAL      H    8   1.839   2.065   2.501  1.7415 -1.0225 -1.0020
   44VAL     CA    9   1.988   2.158   2.402 -0.2730  0.6037  1.3577
   44VAL     HA   10   1.984   2.258   2.358 -1.0381 -0.3907 -0.9630
   44VAL     CB   11   2.129   2.134   2.443 -0.1282 -0.4680 -0.3117
   44VAL     HB   12   2.146   2.210   2.518 -1.3150 -1.6815  1.2531
   44VAL    CG1   13   2.165   2.007   2.514  0.3848  0.7190 -0.0450
   44VAL   HG11   14   2.252   2.012   2.579 -1.1530  1.0123  2.0894
   44VAL   HG12   15   2.086   1.976   2.582  0.6856 -3.1176 -1.2037
   44VAL   HG13   16   2.167   1.920   2.448 -2.4434  1.0276 -0.6628
   44VAL    CG2   17   2.231   2.154   2.337  0.3323 -0.6100  0.2899
   44VAL   HG21   18   2.328   2.138   2.385 -0.0054  1.5896  1.9082
   44VAL   HG22   19   2.209   2.105   2.243  0.4840  1.6326 -0.9872
   44VAL   HG23   20   2.222   2.260   2.311  1.4199 -0.7164 -0.6033
   44VAL      C   21   1.952   2.059   2.286  0.2213  0.0736 -0.2160
   44VAL      O   22   1.915   1.949   2.326 -0.1016  0.5891  0.0820
   45LEU      N   23   1.962   2.105   2.159  0.3185  0.3043 -0.2330
   45LEU      H   24   1.994   2.201   2.151  3.3002 -0.5371  0.4588
   45LEU     CA   25   1.939   2.014   2.047  0.0152 -0.1824 -0.5538
   45LEU     HA   26   1.858   1.949   2.082  1.0213  0.3205  3.1564
   45LEU     CB   27   1.902   2.095   1.920  0.0028 -0.7847 -0.2504
   45LEU    HB1   28   1.886   2.027   1.836 -0.1953  0.5366 -1.3090
   45LEU    HB2   29   1.985   2.162   1.898  0.2648  0.1829  3.1010
   45LEU     CG   30   1.774   2.184   1.932  0.0179  0.2776 -0.1626
   45LEU     HG   31   1.787   2.249   2.019  1.6610 -0.4567  0.1652
   45LEU    CD1   32   1.747   2.257   1.805 -0.1786  0.2714 -0.4306
   45LEU   HD11   33   1.824   2.331   1.783  1.5954 -1.3096  0.2071
   45LEU   HD12   34   1.750   2.180   1.727 -0.9068 -0.9040  0.6540
   45LEU   HD13   35   1.646   2.298   1.800 -0.6450 -0.6877  0.7302
   45LEU    CD2   36   1.651   2.104   1.971  0.2639  0.3872  0.5347
   45LEU   HD21   37   1.555   2.155   1.963 -0.7571 -1.5794 -0.8521
   45LEU   HD22   38   1.646   2.011   1.914  0.0525  1.4981 -1.3181
   45LEU   HD23   39   1.662   2.076   2.076 -0.8765  1.6381  1.0072
   45LEU      C   40   2.051   1.922   2.021 -0.1727 -0.1649 -0.5282
   45LEU      O   41   2.164   1.960   2.003 -0.0199 -0.0274  0.5559
   46VAL      N   42   2.014   1.794   2.010  0.1654 -0.4373  0.1562
   46VAL      H   43   1.914   1.779   2.012  0.2473 -1.0944 -0.2766
   46VAL     CA   44   2.103   1.677   1.986 -0.9634 -0.0720 -0.6003
   46VAL     HA   45   2.209   1.700   1.974 -1.5057  1.7851 -2.2577
   46VAL     CB   46   2.107   1.584   2.107  0.0689  0.0569  0.0263
   46VAL     HB   47   2.171   1.499   2.084 -0.8888 -0.6382 -0.1190
   46VAL    CG1   48   2.165   1.650   2.232  0.7125  0.0489 -0.4328
   46VAL   HG11   49   2.153   1.581   2.315 -2.4300  0.6511 -0.2525
   46VAL   HG12   50   2.270   1.678   2.224  1.2275 -1.2590  1.1107
   46VAL   HG13   51   2.105   1.735   2.265 -0.6149 -0.0443 -2.4059
   46VAL    CG2   52   1.971   1.521   2.131  0.8518 -0.0549 -0.2373
   46VAL   HG21   53   1.934   1.473   2.040  0.7570  0.5194 -0.5129
   46VAL   HG22   54   1.981   1.454   2.216 -0.0292  1.3748  1.0438
   46VAL   HG23   55   1.901   1.596   2.167 -0.3594 -2.0985  1.8261
   46VAL      C   56   2.075   1.590   1.862 -0.6951  0.1286 -0.4430
   46VAL      O   57   2.168   1.523   1.819  0.4618  0.4396  0.2263
   47ILE      N   58   1.952   1.602   1.813 -0.0110  0.2852 -0.2191
   47ILE      H   59   1.886   1.648   1.875  1.6984  2.9320 -0.1976
   47ILE     CA   60   1.901   1.544   1.693  1.1186  0.2136  0.1929
   47ILE     HA   61   1.985   1.545   1.623  0.2565 -0.4626 -0.8751
   47ILE     CB   62   1.827   1.411   1.728 -0.0276 -0.0751  0.5674
   47ILE     HB   63   1.740   1.436   1.789 -1.4091  1.8846 -1.9932
   47ILE    CG2   64   1.753   1.338   1.608  0.6014 -1.1286 -0.3043
   47ILE   HG21   65   1.708   1.242   1.635 -0.8569 -0.5633 -0.6278
   47ILE   HG22   66   1.672   1.401   1.572  1.8043  0.1124 -0.9338
   47ILE   HG23   67   1.824   1.328   1.526  0.4058  0.9556 -0.7597
   47ILE    CG1   68   1.920   1.306   1.788  0.1048 -0.8952  0.2731
   47ILE   HG11   69   1.863   1.218   1.817 -1.6405  0.0176 -0.2224
   47ILE   HG12   70   1.968   1.342   1.879  0.3425 -0.2093 -0.1146
   47ILE     CD   71   2.035   1.261   1.696  0.2990  0.2003  0.5970
   47ILE    HD1   72   2.090   1.189   1.757 -1.4919 -1.3585  0.4625
   47ILE    HD2   73   1.999   1.211   1.605 -0.9621  0.6773  0.8126
   47ILE    HD3   74   2.099   1.346   1.670 -1.3987  2.0099  2.0986
   47ILE      C   75   1.792   1.633   1.620  0.3768  0.2737 -0.4103
   47ILE      O   76   1.718   1.703   1.686 -0.0070  0.3278 -0.5238
   48TYR      N   77   1.779   1.637   1.488 -0.5003  0.2180  0.1640
   48TYR      H   78   1.832   1.581   1.424 -3.0523  0.0330 -1.9617
   48TYR     CA   79   1.685   1.728   1.420  0.8450  0.0043  0.0778
   48TYR     HA   80   1.597   1.741   1.483  0.9578 -0.2448  0.2926
   48TYR     CB   81   1.744   1.870   1.414  0.0194  0.7123 -0.0267
   48TYR    HB1   82   1.842   1.866   1.366  0.8502 -0.8132  1.6500
   48TYR    HB2   83   1.772   1.893   1.517  2.6504 -0.5116 -0.3868
   48TYR     CG   84   1.653   1.969   1.358  0.4021  0.4079 -0.0876
   48TYR    CD1   85   1.551   2.019   1.438 -0.5720 -0.2322  0.2864
   48TYR    HD1   86   1.548   1.984   1.540 -0.2729 -1.5834 -0.1427
   48TYR    CE1   87   1.445   2.092   1.388 -0.0295 -0.0622 -0.0280
   48TYR    HE1   88   1.362   2.124   1.450  1.6676  1.8030  1.4105
   48TYR     CZ   89   1.444   2.124   1.252  0.2203 -0.1134  0.6363
   48TYR     OH   90   1.351   2.202   1.200  0.2889 -0.4684 -0.3414
   48TYR     HH   91   1.354   2.215   1.105 -0.5527  0.9337 -0.2118
   48TYR    CE2   92   1.551   2.083   1.164  0.3344  0.0459 -0.0000
   48TYR    HE2   93   1.559   2.113   1.061  0.0336  2.8122  0.7151
   48TYR    CD2   94   1.648   1.998   1.222  0.3243  0.9078 -0.3529
   48TYR    HD2   95   1.727   1.957   1.161 -0.5067  0.5821 -1.2305
   48TYR      C   96   1.654   1.676   1.283  0.0697  0.3095  0.5724
   48TYR      O   97   1.731   1.599   1.230 -1.0795  0.0800  0.5184
   49NME      N   98   1.538   1.708   1.224  0.6496 -0.3663  0.0414
   49NME      H   99   1.464   1.731   1.289 -0.1888 -2.0408 -0.2498
   49NME    CH3  100   1.502   1.673   1.088 -0.0441  0.1998  0.8659
   49NME   HH31  101   1.438   1.752   1.048  1.0319  0.9626  0.6208
   49NME   HH32  102   1.589   1.651   1.026  1.5578  1.5012  2.5545
   49NME   HH33  103   1.447   1.578   1.083 -1.7549  1.0607  2.1670
   50SOL     OW  104  -0.014   0.709   1.618 -0.0951  0.3325 -1.1345
   50SOL    HW1  105  -0.015   0.609   1.619 -0.8650  0.3242  0.4681
   50SOL    HW2  106   0.081   0.741   1.619  0.1645 -0.4066 -0.1748
   51SOL     OW  107   2.899   2.505   1.749 -0.7231 -0.2976  0.3319
   51SOL    HW1  108   2.896   2.488   1.651 -0.9337 -0.3441  0.3460
   51SOL    HW2  109   2.809   2.536   1.780 -1.0726 -1.7131  0.7764
   52SOL     OW  110   3.046   3.446   2.611  0.5093  0.0744 -0.8023
   52SOL    HW1  111   3.008   3.442   2.519 -0.9723  0.8017 -0.2495
   52SOL    HW2  112   3.057   3.541   2.640 -1.5601 -0.0620  0.7130
   53SOL     OW  113   3.515   0.886   1.548  0.2540  0.3830  0.6122
   53SOL    HW1  114   3.569   0.814   1.590  0.2909 -0.2249 -0.4314
   53SOL    HW2  115   3.474   0.944   1.619  0.6463 -0.3457  1.4461
   54SOL     OW  116   1.927   1.853   2.745  0.2433  0.2465 -0.5795
   54SOL    HW1  117   2.004   1.794   2.720  0.1050 -0.1579 -0.0438
   54SOL    HW2  118   1.841   1.806   2.726  0.1307  0.3635 -0.3562
   55SOL     OW  119   3.317   0.754   3.453 -0.2713  0.2124 -0.1102
   55SOL    HW1  120   3.220   0.743   3.471 -0.7830  1.3456 -1.8667
   55SOL    HW2  121   3.370   0.715   3.528 -2.0701 -0.2205  0.9918
   56SOL     OW  122   1.975   0.791   2.650 -0.0596 -0.1868 -0.0715
   56SOL    HW1  123   2.007   0.792   2.745 -0.3247 -1.6889  0.0593
   56SOL    HW2  124   1.934   0.702   2.630 -0.4776  0.2964 -1.4480
   57SOL     OW  125   3.647   1.824   3.437 -0.1247 -0.3717  0.1978
   57SOL    HW1  126   3.594   1.804   3.354  0.7556 -0.3266 -0.3894
   57SOL    HW2  127   3.586   1.824   3.516 -0.9784 -0.4391 -0.4449
   58SOL     OW  128   3.031   3.407   2.116 -0.4337 -0.5288  0.1860
   58SOL    HW1  129   3.024   3.493   2.067  2.7485 -0.3092 -0.0603
   58SOL    HW2  130   3.085   3.342   2.063 -1.6746 -2.2847  0.9492
   59SOL     OW  131   0.910   0.537   1.049  0.3262  0.2926  0.3566
   59SOL    HW1  132   0.814   0.515   1.030  0.1025  1.2074  0.4064
   59SOL    HW2  133   0.930   0.519   1.146  0.1770  0.2133  0.3733
   60SOL     OW  134   2.712   0.403   1.607 -0.2032  0.2602  0.1285
   60SOL    HW1  135   2.696   0.499   1.585 -0.7017  0.6768  2.1276
   60SOL    HW2  136   2.634   0.367   1.657 -0.4426 -1.4973 -1.3703
   61SOL     OW  137   2.530   0.070   0.993  0.3457 -0.8727  0.2695
   61SOL    HW1  138   2.469   0.085   0.915  1.9322 -1.0438 -1.0654
   61SOL    HW2  139   2.525   0.148   1.055 -0.1490 -0.2266 -0.5620
   62SOL     OW  140   2.371   0.766   1.712 -0.0500  0.6631  0.0000
   62SOL    HW1  141   2.428   0.830   1.660 -0.0552 -0.5023 -1.5183
   62SOL    HW2  142   2.279   0.763   1.672 -0.8414  1.5792  1.6518
   63SOL     OW  143   2.906   0.192   0.267  0.0415  0.0889 -0.3792
   63SOL    HW1  144   2.823   0.160   0.312  0.1976 -0.7113 -0.6435
   63SOL    HW2  145   2.957   0.114   0.232 -0.2839  0.6847 -2.3140
   64SOL     OW  146   1.625   0.238   1.756  0.1090  0.0808 -0.1560
   64SOL    HW1  147   1.667   0.166   1.703 -1.3667 -0.8051 -0.1893
   64SOL    HW2  148   1.696   0.293   1.800  1.2760 -1.0155 -0.6019
   65SOL     OW  149   2.606   1.654   0.137  0.2014 -0.2779 -0.7689
   65SOL    HW1  150   2.703   1.657   0.162  0.0446 -0.0912 -0.1492
   65SOL    HW2  151   2.560   1.734   0.176 -0.1654 -0.2651 -1.2208
   66SOL     OW  152   0.516   1.680   1.194  0.2443 -0.2521  0.1041
   66SOL    HW1  153   0.434   1.696   1.249  0.1193  0.4657 -0.2820
   66SOL    HW2  154   0.490   1.633   1.110  0.3615 -0.8492  0.3929
   67SOL     OW  155   2.777   0.523   3.684 -0.4139 -0.3726  0.2023
   67SOL    HW1  156   2.738   0.486   3.599  0.1218 -1.5973  0.4677
   67SOL    HW2  157   2.726   0.605   3.711 -0.6759 -0.0459 -1.2230
   68SOL     OW  158   3.104   1.129   1.874  0.4281  0.0189 -0.0292
   68SOL    HW1  159   3.061   1.162   1.790 -0.7799  0.3041  0.6676
   68SOL    HW2  160   3.090   1.030   1.883 -0.4958  0.1740  0.3979
   69SOL     OW  161   3.687   2.412   2.028 -0.1137 -0.0818  0.2702
   69SOL    HW1  162   3.629   2.468   1.970  0.3259 -0.7624 -0.8615
   69SOL    HW2  163   3.758   2.469   2.070 -1.7698  0.8351  1.9854
   70SOL     OW  164   1.026   0.028   0.227 -0.0904  0.1307  0.1651
   70SOL    HW1  165   0.991   0.114   0.189  0.6280  0.9897  1.4005
   70SOL    HW2  166   1.025   0.032   0.327  0.1866 -1.2183  0.2430
   71SOL     OW  167   1.326   3.454   0.375 -0.3373  0.1965 -0.3035
   71SOL    HW1  168   1.382   3.426   0.453 -0.6854  0.6884  0.1304
   71SOL    HW2  169   1.346   3.550   0.353 -0.3469  0.1027 -0.7268
   72SOL     OW  170   3.416   1.528   3.649 -0.3765 -0.4306 -0.2144
   72SOL    HW1  171   3.478   1.539   3.727 -0.3550 -0.0735 -0.2771
   72SOL    HW2  172   3.329   1.492   3.680  0.1317 -1.7354 -0.2362
   73SOL     OW  173   0.970   1.788   3.546 -0.0376  0.1727  0.5721
   73SOL    HW1  174   1.038   1.726   3.585 -1.7400 -1.0648  1.7081
   73SOL    HW2  175   0.923   1.742   3.470 -0.4695  0.5327  0.6160
   74SOL     OW  176   1.720   0.007   0.372  0.7813 -0.0659 -0.1639
   74SOL    HW1  177   1.779  -0.072   0.390  1.5920  0.5313 -0.1600
   74SOL    HW2  178   1.777   0.088   0.354  0.0911 -0.2242 -3.8746
   75SOL     OW  179   0.170   2.934   1.509  0.1206 -0.1636 -0.3704
   75SOL    HW1  180   0.097   2.978   1.562 -1.3203  0.9262 -3.0741
   75SOL    HW2  181   0.244   2.999   1.494  1.4442 -1.0509  1.7535
   76SOL     OW  182   2.534   1.078   3.597 -0.1463  0.4056  0.6324
   76SOL    HW1  183   2.515   1.106   3.691  0.3693  0.8950  0.5934
   76SOL    HW2  184   2.460   1.110   3.537 -0.1857  0.5944  0.7819
   77SOL     OW  185   0.768   3.338   1.638  0.0235  0.0206  0.5534
   77SOL    HW1  186   0.846   3.339   1.702  0.6313 -0.4019 -0.1577
   77SOL    HW2  187   0.710   3.259   1.659  0.9738 -0.9317 -0.2608
   78SOL     OW  188   1.599   0.940   3.627 -0.1892 -0.3767  0.2224
   78SOL    HW1  189   1.582   0.996   3.546 -1.0906  0.2185  0.8082
   78SOL    HW2  190   1.683   0.970   3.671 -0.4051  0.1879  0.2534
   79SOL     OW  191   0.336   0.753   2.147 -0.4098  0.1455 -0.1115
   79SOL    HW1  192   0.418   0.811   2.151  1.6738 -2.5709 -0.4134
   79SOL    HW2  193   0.340   0.686   2.221 -1.6551 -0.9345 -0.9874
   80SOL     OW  194   1.168   0.996   2.065 -0.1143  0.7403  0.0086
   80SOL    HW1  195   1.248   1.023   2.012 -0.3471  1.9885  0.2712
   80SOL    HW2  196   1.176   1.030   2.159 -1.2142  1.4155 -0.1156
   81SOL     OW  197   3.445   1.275   0.995  0.0104  0.1433 -0.5950
   81SOL    HW1  198   3.541   1.264   0.972 -0.2422  0.0616 -1.6534
   81SOL    HW2  199   3.436   1.333   1.076  1.0314 -1.4331  0.7001
   82SOL     OW  200   0.576   0.309   0.043 -0.0530  0.2582  0.0433
   82SOL    HW1  201   0.533   0.310   0.133 -0.4129 -0.5336 -0.1074
   82SOL    HW2  202   0.550   0.391  -0.008 -2.8321 -0.9639 -0.6953
   83SOL     OW  203   0.718   1.847   1.286  0.7816  0.0020 -0.3027
   83SOL    HW1  204   0.748   1.754   1.304 -0.9691 -0.2298  1.7104
   83SOL    HW2  205   0.626   1.846   1.247  0.5873  0.9149  0.1124
   84SOL     OW  206   3.190   0.939   1.538 -0.1871  0.0776  0.6066
   84SOL    HW1  207   3.108   0.882   1.538 -0.7350  0.8225  1.7179
   84SOL    HW2  208   3.213   0.963   1.444 -1.6761  0.4309  0.3007
   85SOL     OW  209   2.292   1.463   0.558  0.6592 -0.8243  0.0879
   85SOL    HW1  210   2.267   1.537   0.620 -0.4449 -1.2072  0.1313
   85SOL    HW2  211   2.318   1.382   0.611  0.4665 -0.9111  0.0513
   86SOL     OW  212   2.021   0.900   1.064  0.1488 -0.5615  0.2168
   86SOL    HW1  213   1.999   0.808   1.033 -0.8194 -0.0091 -0.8174
   86SOL    HW2  214   2.120   0.912   1.065  0.2560 -1.0113 -1.5668
   87SOL     OW  215   0.648   2.959  -0.001  0.3028  0.7100  0.1207
   87SOL    HW1  216   0.577   2.898  -0.037  0.4395  0.5702  0.0847
   87SOL    HW2  217   0.607   3.026   0.061 -0.0073  1.2234 -0.6211
   88SOL     OW  218   0.831   0.556   1.340 -0.1503 -0.3873 -0.0104
   88SOL    HW1  219   0.745   0.505   1.333  0.3967 -1.5094  1.0125
   88SOL    HW2  220   0.871   0.542   1.431  0.7996  0.6336 -0.2482
   89SOL     OW  221   1.878   0.988   0.413  0.3854 -0.1274  0.7400
   89SOL    HW1  222   1.912   0.913   0.357  1.5192  1.2594 -0.5022
   89SOL    HW2  223   1.803   1.034   0.366  0.6168  0.3731  0.8501
   90SOL     OW  224   2.994   0.144   1.870 -0.2477 -0.0051  0.4572
   90SOL    HW1  225   3.091   0.119   1.872 -0.1606  0.2482 -0.2792
   90SOL    HW2  226   2.938   0.062   1.879  0.0338 -0.4833 -1.6919
   91SOL     OW  227   2.735   0.732   1.278 -0.6276 -0.2524  0.4751
   91SOL    HW1  228   2.705   0.813   1.229 -1.6239 -0.9932 -0.1753
   91SOL    HW2  229   2.832   0.715   1.258 -0.5339  0.5123  0.2613
   92SOL     OW  230   0.085   0.163   2.932 -0.1452  0.1696 -0.5325
   92SOL    HW1  231   0.013   0.100   2.960  0.7917 -0.3432  0.8130
   92SOL    HW2  232   0.106   0.226   3.007  0.6776  0.4291 -0.9658
   93SOL     OW  233   3.310   3.329   0.407  0.0631 -0.2849 -0.0945
   93SOL    HW1  234   3.357   3.245   0.434 -1.3671 -0.8226  0.8659
   93SOL    HW2  235   3.376   3.395   0.371  1.5143 -1.0541  1.0542
   94SOL     OW  236   3.421   0.381   0.634 -0.4710 -0.1516  0.1035
   94SOL    HW1  237   3.458   0.433   0.711 -1.2815  1.5672 -0.6175
   94SOL    HW2  238   3.322   0.372   0.644 -0.3672 -1.4889  0.1402
   95SOL     OW  239   0.518   1.702   0.754  0.1020 -0.0297  0.2625
   95SOL    HW1  240   0.426   1.670   0.780 -0.2917  0.4727 -0.4721
   95SOL    HW2  241   0.557   1.757   0.827 -0.4277  0.2303  0.3521
   96SOL     OW  242   3.370   1.881   2.047 -0.6443 -0.3582 -0.5185
   96SOL    HW1  243   3.445   1.894   2.112 -0.7585 -0.0597 -0.4439
   96SOL    HW2  244   3.350   1.783   2.039 -0.3755 -0.4259 -0.3949
   97SOL     OW  245   3.310   0.704   2.687 -0.0934  0.1690 -0.3221
   97SOL    HW1  246   3.383   0.648   2.726 -0.4143 -0.3271 -0.4256
   97SOL    HW2  247   3.221   0.669   2.717 -0.3496 -0.1704 -1.4133
   98SOL     OW  248   2.088   1.451   2.576 -0.1855  0.0907 -0.5292
   98SOL    HW1  249   2.128   1.387   2.510 -2.1203 -1.3454 -0.4172
   98SOL    HW2  250   2.007   1.494   2.536 -1.8237 -1.3368  1.0580
   99SOL     OW  251   0.222   2.229   1.978 -0.8457 -0.5617  0.3396
   99SOL    HW1  252   0.143   2.169   1.970 -0.5081 -1.1813  1.4025
   99SOL    HW2  253   0.285   2.192   2.047 -1.0937  1.5197  1.7839
  100SOL     OW  254   3.431   0.317   1.568  0.4219  0.0963 -0.4943
  100SOL    HW1  255   3.343   0.364   1.571  0.5893  0.3959 -0.1589
  100SOL    HW2  256   3.436   0.252   1.644  0.1862 -0.4802 -0.9625
  101SOL     OW  257   0.650   0.455   0.974  0.1198 -0.1442 -0.3968
  101SOL    HW1  258   0.594   0.373   0.984 -0.4066  0.3124  0.4980
  101SOL    HW2  259   0.610   0.530   1.026  2.3219 -0.2058  1.5957
  102SOL     OW  260   1.306   1.869   3.239  0.0602  0.2449 -0.2725
  102SOL    HW1  261   1.344   1.786   3.279  0.8245  1.3289  1.3453
  102SOL    HW2  262   1.225   1.897   3.289  0.1452  0.7938 -0.4371
  103SOL     OW  263   1.838   0.846   0.053 -0.2796 -0.1315 -0.3424
  103SOL    HW1  264   1.863   0.761   0.007 -0.1678 -0.8602  0.9856
  103SOL    HW2  265   1.922   0.894   0.081 -0.3435  0.3332 -0.9498
  104SOL     OW  266   1.175   2.429   1.354  0.2829 -0.0836  0.5825
  104SOL    HW1  267   1.149   2.334   1.342 -0.7625 -0.0019  1.8894
  104SOL    HW2  268   1.227   2.438   1.439 -1.0534  0.7252  1.3518
  105SOL     OW  269   1.057   3.346   0.351  0.6845 -0.2821 -0.2638
  105SOL    HW1  270   1.040   3.379   0.444 -0.2535 -1.8216  0.1477
  105SOL    HW2  271   1.152   3.366   0.325  1.1684 -0.4251  1.2898
  106SOL     OW  272   1.834   0.841   3.236 -0.3470  0.2651  0.2631
  106SOL    HW1  273   1.782   0.794   3.307 -0.7703  0.0173 -0.2091
  106SOL    HW2  274   1.782   0.842   3.151  1.9240 -3.5136 -1.4326
  107SOL     OW  275   0.136   0.359   3.104 -0.1142 -0.3119  0.2904
  107SOL    HW1  276   0.232   0.372   3.128 -0.2827 -0.2082  0.9389
  107SOL    HW2  277   0.079   0.376   3.185 -0.7350  0.4175 -0.2816
  108SOL     OW  278   1.485   0.894   2.244 -0.0060 -0.0484  0.4477
  108SOL    HW1  279   1.545   0.839   2.302  0.7375  0.5104  0.2315
  108SOL    HW2  280   1.460   0.842   2.162  0.5790 -0.1264  0.3107
  109SOL     OW  281   0.529   0.045   1.351  0.6415 -0.5103  0.0121
  109SOL    HW1  282   0.539   0.122   1.415  0.5576 -0.2016 -0.3431
  109SOL    HW2  283   0.603  -0.021   1.367  1.3608  0.1744 -0.3985
  110SOL     OW  284   3.691   1.647   0.620  0.2572  0.0364 -0.0236
  110SOL    HW1  285   3.686   1.695   0.532  3.0941  0.6238  0.0154
  110SOL    HW2  286   3.695   1.548   0.603 -2.7555 -0.1300 -0.2657
  111SOL     OW  287   0.250   1.355   3.692 -0.0964 -0.6002  0.3553
  111SOL    HW1  288   0.175   1.379   3.631 -0.1636 -1.2945  0.1575
  111SOL    HW2  289   0.319   1.304   3.641  0.8770  0.6531  0.3489
  112SOL     OW  290   2.286   3.308   3.005  0.1099  0.0865 -0.0518
  112SOL    HW1  291   2.291   3.397   3.052 -1.2046 -0.1823  0.6441
  112SOL    HW2  292   2.217   3.313   2.933 -0.9176 -0.7391  0.8527
  113SOL     OW  293   0.672   1.183   1.140  0.3719 -0.5003  0.3141
  113SOL    HW1  294   0.666   1.278   1.110  1.5999 -0.7746 -0.8692
  113SOL    HW2  295   0.587   1.159   1.188 -0.9071  0.5236 -1.3069
  114SOL     OW  296   1.140   1.813   1.633 -0.3167  0.2582  0.5426
  114SOL    HW1  297   1.227   1.791   1.590 -1.1618  0.5703 -1.4214
  114SOL    HW2  298   1.128   1.912   1.637 -1.9362  0.2777 -2.2701
  115SOL     OW  299   0.235   0.853   0.558  0.1613 -0.1830 -0.0249
  115SOL    HW1  300   0.312   0.805   0.598  0.1595 -0.8173 -0.7526
  115SOL    HW2  301   0.206   0.805   0.475  0.0514  0.9870 -0.6778
  116SOL     OW  302   0.971   0.482   1.551 -0.2521 -0.2002  0.1691
  116SOL    HW1  303   1.002   0.574   1.577  1.1338 -0.9558  1.3808
  116SOL    HW2  304   1.038   0.441   1.490 -0.3393 -0.7816  0.4613
  117SOL     OW  305   0.101   0.753   2.404 -0.1302 -0.0501  0.7119
  117SOL    HW1  306   0.096   0.664   2.448  4.3505 -1.2846 -0.7691
  117SOL    HW2  307   0.067   0.746   2.310  1.0221 -0.5127  0.3094
  118SOL     OW  308   0.281   2.693   1.837 -0.0321 -0.1266 -0.1718
  118SOL    HW1  309   0.239   2.603   1.844  1.6908 -1.0557 -1.1354
  118SOL    HW2  310   0.369   2.694   1.885  0.2808  0.8206 -0.7219
  119SOL     OW  311   0.550   0.013   0.728 -0.0310  0.1180 -0.2225
  119SOL    HW1  312   0.472   0.062   0.690 -0.7662 -0.9577 -0.1546
  119SOL    HW2  313   0.591  -0.046   0.658  1.0604  1.0476 -0.4035
  120SOL     OW  314   0.608   0.583   1.717  0.1324 -0.4766 -0.0833
  120SOL    HW1  315   0.540   0.595   1.790  2.0200  0.6697  1.6023
  120SOL    HW2  316   0.636   0.672   1.683  0.2496 -0.9635 -1.3021
  121SOL     OW  317   1.467   2.087   3.441  0.3218 -0.5914  0.3621
  121SOL    HW1  318   1.397   2.025   3.406 -0.7032  0.6496  0.1298
  121SOL    HW2  319   1.528   2.113   3.366 -0.4088  0.1614  0.0094
  122SOL     OW  320   1.449   1.227   0.675  0.0441 -0.0758 -0.2580
  122SOL    HW1  321   1.401   1.314   0.688 -0.4512 -0.3986  0.1090
  122SOL    HW2  322   1.449   1.203   0.578 -0.9293 -0.2860 -0.2134
  123SOL     OW  323   3.562   3.275   3.509  0.1360  0.4488  0.1300
  123SOL    HW1  324   3.484   3.228   3.467  0.5732 -0.3764  0.2415
  123SOL    HW2  325   3.542   3.293   3.605  1.0414 -1.9874  0.8242
  124SOL     OW  326   1.839   1.781   3.417 -0.2986 -0.2558 -0.1835
  124SOL    HW1  327   1.769   1.838   3.375 -0.2566  0.3788  0.5949
  124SOL    HW2  328   1.814   1.761   3.512  0.0758 -0.8813 -0.2064
  125SOL     OW  329   3.433   1.049   1.181  0.6327  0.3419 -0.3396
  125SOL    HW1  330   3.485   1.121   1.227 -0.5891  1.3556 -0.4707
  125SOL    HW2  331   3.410   1.079   1.088 -0.6480  0.1897 -0.0943
  126SOL     OW  332   2.376   0.171   0.782 -0.1202 -0.2065 -0.2213
  126SOL    HW1  333   2.406   0.106   0.713 -3.1891 -1.0013 -0.9664
  126SOL    HW2  334   2.301   0.227   0.745 -2.0495 -0.8338  2.4514
  127SOL     OW  335   2.654   0.078   2.010  0.0533 -0.2231 -0.0168
  127SOL    HW1  336   2.670   0.170   2.045  1.0966 -0.6644  0.7251
  127SOL    HW2  337   2.710   0.063   1.928  0.6290 -0.5154  0.4247
  128SOL     OW  338   1.186   1.972   0.945 -0.2688 -0.2531  0.6017
  128SOL    HW1  339   1.201   1.896   0.882 -0.1871 -0.6503  1.0977
  128SOL    HW2  340   1.088   1.992   0.951 -0.1606  0.9165 -0.9654
  129SOL     OW  341   3.644   3.026   0.527  0.0323 -0.0028  0.1319
  129SOL    HW1  342   3.692   3.114   0.517 -1.4890  0.8331 -0.0988
  129SOL    HW2  343   3.654   2.994   0.621  3.5407 -1.4182 -0.5475
  130SOL     OW  344   1.345   1.774   0.792  0.3251  0.2290  0.1674
  130SOL    HW1  345   1.393   1.734   0.714  0.1770 -0.6257  0.5005
  130SOL    HW2  346   1.305   1.701   0.848 -1.3946  0.8956 -0.1108
  131SOL     OW  347   0.285   3.162   0.469 -0.5238  0.0005  0.2614
  131SOL    HW1  348   0.284   3.099   0.546 -1.8331  0.9528  1.0600
  131SOL    HW2  349   0.195   3.204   0.459  0.2767  1.6897 -0.2713
  132SOL     OW  350   3.667   1.208   0.593  0.0083  0.4111  0.6135
  132SOL    HW1  351   3.588   1.268   0.585 -0.4002 -0.2331 -0.4948
  132SOL    HW2  352   3.641   1.124   0.642  0.3774  0.7921  1.4811
  133SOL     OW  353   0.250   0.745   1.662 -0.3034  0.1500 -0.0794
  133SOL    HW1  354   0.301   0.821   1.701 -1.6742  0.3775  1.4042
  133SOL    HW2  355   0.261   0.744   1.563  1.1859  1.1760  0.0468
  134SOL     OW  356   1.488   0.854   0.983  0.3881 -1.0778 -0.6824
  134SOL    HW1  357   1.461   0.774   0.929  1.6557 -2.0977  0.1238
  134SOL    HW2  358   1.572   0.833   1.032 -0.1208  0.2228  0.8004
  135SOL     OW  359   1.504   1.914   2.254  0.2459  0.5471  0.0355
  135SOL    HW1  360   1.454   1.851   2.194 -0.1610  1.4054 -0.5441
  135SOL    HW2  361   1.487   1.889   2.349  1.0147 -0.9227 -0.1792
  136SOL     OW  362   1.725   1.353   1.179 -0.4624  0.1888  0.0926
  136SOL    HW1  363   1.717   1.445   1.217  1.1201  0.2799  0.2726
  136SOL    HW2  364   1.806   1.308   1.217 -1.8500 -1.7416  0.9276
  137SOL     OW  365   0.609   0.424   2.162 -0.5833 -0.4410 -0.2029
  137SOL    HW1  366   0.609   0.345   2.222  4.1158 -1.6586 -1.4138
  137SOL    HW2  367   0.674   0.493   2.196  0.3822 -0.1032 -2.4847
  138SOL     OW  368   2.397   0.823   3.573  0.3560  0.2849 -0.2541
  138SOL    HW1  369   2.453   0.741   3.562 -0.2416 -0.4440  1.7132
  138SOL    HW2  370   2.456   0.901   3.595  0.8365  0.1696 -1.0973
  139SOL     OW  371   0.957   1.786   0.735 -0.3858 -0.2869 -0.5471
  139SOL    HW1  372   1.006   1.813   0.652  0.5959 -0.6276 -0.1041
  139SOL    HW2  373   0.961   1.861   0.802  1.3839 -1.0296  0.2671
  140SOL     OW  374   3.105   0.723   0.259 -0.1427  0.3348  0.2700
  140SOL    HW1  375   3.089   0.696   0.164 -2.0933 -0.1933  0.7076
  140SOL    HW2  376   3.068   0.654   0.321 -0.7431  1.6004  1.4024
  141SOL     OW  377   1.749   2.341   0.528  0.1970 -0.5637 -0.2876
  141SOL    HW1  378   1.715   2.279   0.457  0.2655 -0.8232 -0.0947
  141SOL    HW2  379   1.723   2.306   0.618  2.0811 -1.4671 -0.0642
  142SOL     OW  380   0.795   3.211   1.180  0.1184  0.0157 -0.0740
  142SOL    HW1  381   0.793   3.167   1.090 -3.2337  0.7048 -0.4760
  142SOL    HW2  382   0.753   3.149   1.248  0.4069  0.4389  0.4975
  143SOL     OW  383   0.110   1.173   0.373 -0.2906 -0.4929  0.0757
  143SOL    HW1  384   0.042   1.164   0.446  0.8382  0.7455  1.3622
  143SOL    HW2  385   0.201   1.158   0.412  0.3008 -0.3610 -1.2240
  144SOL     OW  386   0.261   0.515   1.794  0.4088  0.7310 -0.9878
  144SOL    HW1  387   0.257   0.600   1.742 -0.6452  0.2540 -1.6972
  144SOL    HW2  388   0.344   0.515   1.851 -0.7508  3.2899  0.8644
  145SOL     OW  389   1.627   0.283   0.291 -0.3484 -0.0954  0.3053
  145SOL    HW1  390   1.591   0.271   0.198 -1.7519 -1.4125  0.9806
  145SOL    HW2  391   1.562   0.336   0.345  1.1090  1.9067  0.2026
  146SOL     OW  392   1.193   0.510   1.033 -0.2391  0.0397 -0.3745
  146SOL    HW1  393   1.225   0.420   1.006 -1.1127  0.0235 -1.4083
  146SOL    HW2  394   1.094   0.508   1.045 -0.0297  0.2844  1.9725
  147SOL     OW  395   1.020   1.370   2.392  0.2350  0.5342 -0.5904
  147SOL    HW1  396   0.965   1.355   2.310 -1.3276 -0.1085  0.5319
  147SOL    HW2  397   1.115   1.343   2.374 -0.3804 -0.9766 -1.7578
  148SOL     OW  398   0.743   0.683   3.285 -0.4646 -0.2143  0.3646
  148SOL    HW1  399   0.800   0.719   3.360 -1.1371  0.6469  0.4735
  148SOL    HW2  400   0.663   0.742   3.273  0.4193  0.5972 -2.1009
  149SOL     OW  401   2.600   0.325   0.735 -0.1173 -0.6111 -0.3679
  149SOL    HW1  402   2.508   0.289   0.750 -0.9389  1.0650 -1.0263
  149SOL    HW2  403   2.665   0.250   0.727 -1.4882 -1.8546 -0.2676
  150SOL     OW  404   0.606   1.199   2.268  0.4793  0.1414 -0.2224
  150SOL    HW1  405   0.508   1.181   2.277  0.2799  1.1005 -0.3043
  150SOL    HW2  406   0.632   1.194   2.172  0.0107  2.1271 -0.5026
  151SOL     OW  407   0.105   2.814   2.483  0.1246  0.1619  1.0441
  151SOL    HW1  408   0.196   2.792   2.518 -0.0661  0.5821  1.8335
  151SOL    HW2  409   0.036   2.767   2.539 -0.1261 -1.3196 -0.4161
  152SOL     OW  410   0.215   1.771   2.843  0.2044  0.2643  0.8698
  152SOL    HW1  411   0.309   1.803   2.845  0.9017 -1.6355  2.9080
  152SOL    HW2  412   0.188   1.741   2.935 -1.1938 -2.4134 -0.2913
  153SOL     OW  413   0.362   1.452   1.074  0.5566 -0.0923 -0.0468
  153SOL    HW1  414   0.315   1.451   1.162  0.3315  1.2913 -0.1335
  153SOL    HW2  415   0.460   1.436   1.089  0.4697 -0.2221  0.4102
  154SOL     OW  416   3.370   1.951   3.636 -0.1503 -0.3649  0.2556
  154SOL    HW1  417   3.341   1.880   3.700 -0.6088  0.0937  0.5655
  154SOL    HW2  418   3.329   1.932   3.546 -2.2225  0.7585  0.9000
  155SOL     OW  419   1.265   1.952   2.985 -0.2457  0.3661 -0.0486
  155SOL    HW1  420   1.285   1.919   3.077 -1.7820  0.9542  0.5315
  155SOL    HW2  421   1.183   2.009   2.987 -0.8609 -0.3786 -1.9404
  156SOL     OW  422   1.316   2.830   2.364  0.0361 -0.5310 -0.4024
  156SOL    HW1  423   1.367   2.761   2.313  0.9574 -0.0277 -0.1666
  156SOL    HW2  424   1.250   2.785   2.424 -2.1686 -1.1411 -3.0722
  157SOL     OW  425   2.531   0.551   1.147 -0.2445  0.3981 -0.2770
  157SOL    HW1  426   2.589   0.470   1.137  0.0211  0.7830 -2.4210
  157SOL    HW2  427   2.574   0.617   1.208  0.8959  0.0689 -0.7101
  158SOL     OW  428   0.068   1.020   2.225  0.0218 -0.4869  0.6150
  158SOL    HW1  429   0.023   1.083   2.161  1.6812 -0.5813 -0.7267
  158SOL    HW2  430   0.019   0.933   2.226 -0.1397 -0.4271 -0.4525
  159SOL     OW  431   2.152  -0.020   1.430  0.2047  0.3461 -0.2547
  159SOL    HW1  432   2.088   0.054   1.453 -0.2327 -0.1007  0.0080
  159SOL    HW2  433   2.229   0.017   1.378 -0.4785  0.8270 -0.9497
  160SOL     OW  434   1.231   2.849   1.641 -0.3295  0.0810  0.2599
  160SOL    HW1  435   1.219   2.776   1.708  0.2258  0.4704  0.7933
  160SOL    HW2  436   1.142   2.886   1.615 -0.7198 -1.5531 -0.9040
  161SOL     OW  437   0.031   0.246   1.887  0.3773 -0.1251 -0.2395
  161SOL    HW1  438   0.072   0.267   1.798 -1.1186  0.2305 -0.8807
  161SOL    HW2  439  -0.018   0.326   1.921  0.1788 -0.5392  0.4867
  162SOL     OW  440   0.544   3.222   0.762  0.0252  0.1446  0.3389
  162SOL    HW1  441   0.573   3.148   0.702 -1.5358  0.5041 -0.9063
  162SOL    HW2  442   0.625   3.269   0.798  1.0014 -0.6021 -0.7988
  163SOL     OW  443   2.475   1.951   1.199 -0.8666 -0.3266  0.0674
  163SOL    HW1  444   2.515   1.933   1.289 -0.2902  1.1059  0.1226
  163SOL    HW2  445   2.389   1.901   1.189 -0.5700 -1.0690  1.1193
  164SOL     OW  446   1.955   0.722   0.665 -0.0715  0.4555 -0.5004
  164SOL    HW1  447   1.926   0.716   0.569  0.3955  0.3641 -0.6351
  164SOL    HW2  448   2.040   0.774   0.671 -0.7553  1.5504 -0.0004
  165SOL     OW  449   1.200   0.124   2.059  0.0234 -0.1980  0.1698
  165SOL    HW1  450   1.265   0.089   1.991 -1.0920  0.4285 -1.2849
  165SOL    HW2  451   1.137   0.051   2.085 -0.1069 -0.2169 -0.1822
  166SOL     OW  452   3.355   1.070   1.716  0.5205 -0.0533 -0.0348
  166SOL    HW1  453   3.290   1.029   1.652 -0.6629  2.4575 -0.5916
  166SOL    HW2  454   3.307   1.138   1.772  2.3562  0.7156  0.6722
  167SOL     OW  455   0.063   3.440   0.658 -0.0760 -0.8513  0.1425
  167SOL    HW1  456   0.082   3.537   0.673 -1.6833 -0.5952  0.8335
  167SOL    HW2  457   0.135   3.385   0.699  0.3527  0.0380  0.6125
  168SOL     OW  458   1.654   0.782   2.422  0.1839  0.3965 -0.3626
  168SOL    HW1  459   1.713   0.701   2.421 -0.2740  0.0557 -0.3008
  168SOL    HW2  460   1.586   0.772   2.495  0.9838  1.4633  0.5700
  169SOL     OW  461   0.381   0.604   0.778  0.2513  0.5425  0.3536
  169SOL    HW1  462   0.400   0.701   0.791 -1.2498  1.1106 -1.3501
  169SOL    HW2  463   0.317   0.572   0.849 -1.4002  1.5126 -0.6545
  170SOL     OW  464   0.368   1.122   0.491 -0.1238 -0.1633 -0.3099
  170SOL    HW1  465   0.317   1.038   0.509  1.4672 -1.0046  0.6033
  170SOL    HW2  466   0.466   1.102   0.493  0.3008  1.7106 -0.1835
  171SOL     OW  467   1.019   1.025   0.517  0.6644  0.2945  0.0370
  171SOL    HW1  468   0.983   0.939   0.479  0.9274 -0.0258  0.5149
  171SOL    HW2  469   0.985   1.101   0.461  0.8094 -0.1478 -0.6763
  172SOL     OW  470   3.352   3.391   1.966  0.4113 -0.3578  0.2345
  172SOL    HW1  471   3.303   3.305   1.951  0.2000 -0.2830  0.5149
  172SOL    HW2  472   3.362   3.408   2.064 -0.4669  0.4731  0.1847
  173SOL     OW  473   3.191   1.208   0.849  0.4161 -0.1234  0.4200
  173SOL    HW1  474   3.279   1.229   0.892 -0.0441 -0.6447  1.6549
  173SOL    HW2  475   3.189   1.110   0.825  1.1412  0.3617 -1.9919
  174SOL     OW  476   2.222   0.284   3.595 -0.2699  0.1089  0.0495
  174SOL    HW1  477   2.304   0.257   3.646  0.0275  0.3692 -0.2861
  174SOL    HW2  478   2.247   0.353   3.527 -0.9819  1.1532  0.8163
  175SOL     OW  479   1.098   0.241   0.762 -0.3809 -0.0471  0.2571
  175SOL    HW1  480   1.195   0.224   0.749 -0.3900 -0.0102  0.1344
  175SOL    HW2  481   1.072   0.325   0.714 -0.7810 -0.8715 -1.0446
  176SOL     OW  482   1.341   2.191   1.740 -0.8209  0.0222 -0.0427
  176SOL    HW1  483   1.389   2.106   1.762  1.4954  1.4666  0.8430
  176SOL    HW2  484   1.253   2.193   1.786 -0.7089 -1.6683  0.3009
  177SOL     OW  485   3.654   2.830   1.794  0.1104 -0.2042 -0.1348
  177SOL    HW1  486   3.744   2.871   1.803 -1.2352  2.5900  2.2835
  177SOL    HW2  487   3.593   2.893   1.745 -1.4455 -0.3211  1.5568
  178SOL     OW  488   0.747   0.962   1.890 -0.2434 -0.2355  0.1090
  178SOL    HW1  489   0.706   1.051   1.907  1.7722  0.6210  0.8075
  178SOL    HW2  490   0.845   0.965   1.913  0.0990 -2.3464 -0.8048
  179SOL     OW  491   0.542   2.586   3.281 -0.3354 -0.2906 -0.0742
  179SOL    HW1  492   0.603   2.647   3.230  0.8138 -2.8001 -1.9544
  179SOL    HW2  493   0.587   2.557   3.365 -0.0049 -0.1408 -0.1941
  180SOL     OW  494   3.594   3.378   1.601 -0.3004  0.3086  0.4826
  180SOL    HW1  495   3.579   3.477   1.591 -1.8899  0.2606  2.0922
  180SOL    HW2  496   3.679   3.363   1.652  0.8162  0.7570 -1.1332
  181SOL     OW  497   0.929   1.362   3.372 -0.1466  0.2757 -0.0413
  181SOL    HW1  498   0.942   1.290   3.440  1.4783 -0.6464 -1.2608
  181SOL    HW2  499   0.911   1.321   3.283 -0.4944  1.4263 -0.5169
  182SOL     OW  500  -0.000   0.866   3.489  0.0795  0.1322 -0.9017
  182SOL    HW1  501   0.055   0.896   3.412  0.5762 -0.3105 -0.7289
  182SOL    HW2  502   0.002   0.936   3.561  0.6197  0.0218 -0.8014
  183SOL     OW  503   0.691   1.425   0.449  0.2937 -0.3900 -0.3664
  183SOL    HW1  504   0.608   1.407   0.500 -1.0342  2.0207 -1.4872
  183SOL    HW2  505   0.739   1.504   0.489  0.7191 -0.2206 -1.1825
  184SOL     OW  506   3.697   0.237   0.273  0.0468  0.7764 -0.1401
  184SOL    HW1  507   3.690   0.142   0.303 -0.7234  1.2778  1.3317
  184SOL    HW2  508   3.635   0.252   0.196 -0.4962  0.3079  0.1995
  185SOL     OW  509   2.908   0.044   3.481 -0.1585  0.0760 -0.4097
  185SOL    HW1  510   2.979   0.114   3.471 -0.9121  1.0125  0.5199
  185SOL    HW2  511   2.910  -0.017   3.402  1.5483  0.1943 -0.4871
  186SOL     OW  512   0.161   3.514   1.201  0.0586 -0.0353 -0.4903
  186SOL    HW1  513   0.200   3.512   1.109 -0.0853 -0.8263 -0.5404
  186SOL    HW2  514   0.068   3.477   1.198  0.0442 -0.0358 -0.0279
  187SOL     OW  515   2.405   0.326   1.686 -0.7808  0.8220  0.1588
  187SOL    HW1  516   2.374   0.232   1.699  2.4012 -0.3279  0.3051
  187SOL    HW2  517   2.418   0.344   1.588 -0.4041  0.7289  0.1885
  188SOL     OW  518   1.114   2.644   0.127  0.1268  0.3655  0.1903
  188SOL    HW1  519   1.212   2.653   0.146 -0.4221  1.3252  2.8832
  188SOL    HW2  520   1.079   2.730   0.090  0.1736  0.2148 -0.2095
  189SOL     OW  521   2.084   0.497   1.735 -0.2814  0.0401  0.1919
  189SOL    HW1  522   2.123   0.572   1.682 -0.4698  0.3421  0.4774
  189SOL    HW2  523   2.144   0.475   1.812 -0.7202  0.5797  0.6957
  190SOL     OW  524   0.660   0.490   0.385  0.4379 -0.0467  0.1931
  190SOL    HW1  525   0.705   0.551   0.450  0.1047 -2.4192  2.8714
  190SOL    HW2  526   0.726   0.423   0.351  0.0307 -0.4323  0.1507
  191SOL     OW  527   3.525   3.618   1.211  0.1625  0.2683 -0.3650
  191SOL    HW1  528   3.588   3.647   1.139  0.1202  2.2304  0.3527
  191SOL    HW2  529   3.509   3.693   1.274 -1.1644 -0.8911  0.7398
  192SOL     OW  530   3.452   0.983   3.436  0.1498  0.1829  0.4379
  192SOL    HW1  531   3.410   0.896   3.462  1.3536 -0.7045 -0.4946
  192SOL    HW2  532   3.381   1.053   3.427 -1.0402 -1.0757 -0.3066
  193SOL     OW  533   1.562   0.996   1.729 -0.3452 -0.2304  0.2363
  193SOL    HW1  534   1.569   0.902   1.695  1.8356  0.3118 -1.0111
  193SOL    HW2  535   1.643   1.018   1.783  0.1412  1.4768 -1.0864
  194SOL     OW  536   3.613   1.748   0.349 -0.2179  0.9929  0.2151
  194SOL    HW1  537   3.529   1.789   0.387  1.7704  1.6068  4.6492
  194SOL    HW2  538   3.676   1.821   0.322  0.1684  0.6465  0.1771
  195SOL     OW  539   1.237   0.995   2.348  0.1565  0.1255  0.5570
  195SOL    HW1  540   1.232   0.911   2.401  1.0497 -1.5968 -1.9252
  195SOL    HW2  541   1.319   0.994   2.290 -1.6094  0.9917 -2.1839
  196SOL     OW  542   1.385   2.467   0.581 -0.5085 -0.1774 -0.3561
  196SOL    HW1  543   1.296   2.501   0.553 -0.5411  0.2857  0.2901
  196SOL    HW2  544   1.424   2.527   0.651 -0.0041 -0.7657 -0.1174
  197SOL     OW  545   1.002   1.210   1.306 -0.1374 -0.5592 -0.0331
  197SOL    HW1  546   1.008   1.166   1.396  0.1753 -1.4810 -0.4965
  197SOL    HW2  547   1.077   1.276   1.297 -0.8044  0.3510  0.7935
  198SOL     OW  548   0.242   3.523   0.937  0.2709  0.8859 -0.0007
  198SOL    HW1  549   0.250   3.442   0.879  1.0682  0.8515  0.1397
  198SOL    HW2  550   0.333   3.564   0.949 -0.0989  1.7243  0.0376
  199SOL     OW  551   2.725   1.108   2.287 -0.1508  0.3440  0.2197
  199SOL    HW1  552   2.770   1.157   2.211 -1.9163  0.6645 -0.6748
  199SOL    HW2  553   2.785   1.110   2.367  1.1162  1.3477 -0.6911
  200SOL     OW  554   0.959   2.541   3.121  0.0663  0.0435 -0.0503
  200SOL    HW1  555   0.952   2.448   3.084  0.5106  0.7624 -2.1007
  200SOL    HW2  556   1.039   2.547   3.181  0.2897 -0.7917 -0.2507
  201SOL     OW  557   2.084   0.731   3.165  0.1892 -0.0070  0.3558
  201SOL    HW1  558   2.156   0.781   3.214  1.1526 -1.5732  0.5934
  201SOL    HW2  559   1.995   0.772   3.186  1.0952  4.0254 -2.3332
  202SOL     OW  560   1.195   1.885   1.227 -0.2561  0.0109 -0.3796
  202SOL    HW1  561   1.207   1.918   1.134  0.8550 -0.2273 -0.3324
  202SOL    HW2  562   1.150   1.955   1.282 -0.1282  0.4919 -0.8824
  203SOL     OW  563   0.713   1.672   1.778  0.0438  0.4858 -0.1364
  203SOL    HW1  564   0.675   1.659   1.686 -2.5860  2.5695  0.5496
  203SOL    HW2  565   0.648   1.639   1.846  1.3948  0.1601  1.0313
  204SOL     OW  566   1.006   3.559   1.143  0.4176 -0.0135  0.3002
  204SOL    HW1  567   1.022   3.642   1.089  1.6998  0.5656  1.5193
  204SOL    HW2  568   1.044   3.480   1.095 -1.2016 -0.0105 -1.0846
  205SOL     OW  569   1.338   1.674   3.398 -0.4635 -0.4842  0.6256
  205SOL    HW1  570   1.377   1.639   3.483  1.9119 -2.6014 -1.1719
  205SOL    HW2  571   1.276   1.606   3.358  0.4587 -0.6675 -0.5570
  206SOL     OW  572   0.946   1.317   0.410  0.1527 -0.0168  0.6320
  206SOL    HW1  573   0.863   1.370   0.428  0.0580 -0.1671  0.6338
  206SOL    HW2  574   1.026   1.376   0.422  0.0700  0.0039  1.1043
  207SOL     OW  575   1.381   0.648   0.878 -0.2571 -0.1420  0.2314
  207SOL    HW1  576   1.373   0.618   0.783 -0.1995  1.1055 -0.1859
  207SOL    HW2  577   1.302   0.616   0.930 -0.5629 -0.3665 -0.3652
  208SOL     OW  578   3.393   0.962   2.967 -0.1992  0.0120 -0.0994
  208SOL    HW1  579   3.460   0.906   2.919 -0.9782 -0.5848 -0.5151
  208SOL    HW2  580   3.311   0.907   2.985 -0.1944  0.4243  1.2899
  209SOL     OW  581   1.688   0.672   0.718 -0.0953  0.3300  0.1215
  209SOL    HW1  582   1.628   0.723   0.657 -0.4419  1.4972  1.3998
  209SOL    HW2  583   1.783   0.700   0.703 -0.0493 -0.1609 -0.5879
  210SOL     OW  584   1.071   0.146   1.515 -0.2604  0.4114 -0.5755
  210SOL    HW1  585   1.099   0.209   1.587  1.0167 -0.8525  0.0896
  210SOL    HW2  586   0.975   0.119   1.530  0.1407 -0.2497  0.9829
  211SOL     OW  587   1.060   0.476   0.638 -0.3195  0.3285 -0.0705
  211SOL    HW1  588   1.022   0.479   0.545 -2.4062  0.8732  0.7531
  211SOL    HW2  589   1.009   0.538   0.697  1.4345  0.5351  1.3196
  212SOL     OW  590   0.950   1.194   3.583  0.3112 -0.0893 -0.3010
  212SOL    HW1  591   0.988   1.230   3.668  0.8019 -0.2477 -0.4454
  212SOL    HW2  592   0.876   1.130   3.603 -0.2957  0.6790 -0.0311
  213SOL     OW  593   1.073   2.322   2.123  0.1610 -0.4396 -0.6312
  213SOL    HW1  594   1.143   2.257   2.156  1.8083  1.2296 -0.6875
  213SOL    HW2  595   1.019   2.353   2.201  1.4550  0.4945 -0.0686
  214SOL     OW  596   2.263   0.526   3.064 -0.3689 -0.2681 -0.2526
  214SOL    HW1  597   2.357   0.502   3.091 -0.7721 -0.6375  0.8601
  214SOL    HW2  598   2.240   0.616   3.101  0.0912  0.5791 -1.9070
  215SOL     OW  599   0.296   0.701   3.003 -0.2930 -0.2328  0.0480
  215SOL    HW1  600   0.371   0.635   3.003 -0.7588 -0.7989  1.1951
  215SOL    HW2  601   0.264   0.716   2.910  1.3554  0.1568 -0.4771
  216SOL     OW  602   2.301   1.288   0.353 -0.4324  0.0285 -0.7288
  216SOL    HW1  603   2.293   1.361   0.421  1.4401 -1.8316  1.6287
  216SOL    HW2  604   2.212   1.245   0.340 -0.4777 -0.9323  2.2074
  217SOL     OW  605   0.210   0.942   1.981 -0.3614 -0.1015  0.3395
  217SOL    HW1  606   0.187   1.031   2.021 -2.8145  0.1856 -1.4689
  217SOL    HW2  607   0.246   0.882   2.052 -1.7381  1.2937  2.3237
  218SOL     OW  608   1.302   0.062   1.812  0.2000 -0.0019  0.6077
  218SOL    HW1  609   1.250  -0.019   1.787  1.5899 -0.2814 -1.7074
  218SOL    HW2  610   1.280   0.137   1.749  0.6922  0.6719  1.2120
  219SOL     OW  611   3.385   2.122   0.502  0.4662 -0.3879 -0.3076
  219SOL    HW1  612   3.320   2.164   0.566 -1.0383 -0.4899 -1.6950
  219SOL    HW2  613   3.409   2.189   0.432  1.7068 -0.4279  0.0687
  220SOL     OW  614   0.110   1.096   1.624 -0.2268 -0.2902  0.0817
  220SOL    HW1  615   0.042   1.146   1.677  0.2877  1.4579 -0.8324
  220SOL    HW2  616   0.068   1.060   1.541 -0.0362  0.9565 -0.5791
  221SOL     OW  617   0.368   0.132   1.144  0.3112 -0.1666  0.3519
  221SOL    HW1  618   0.412   0.166   1.061 -1.2285  0.3514 -0.2844
  221SOL    HW2  619   0.437   0.092   1.205  1.3975 -1.0753 -1.4131
  222SOL     OW  620   0.527   0.845   3.191 -0.1180  0.5309  0.6141
  222SOL    HW1  621   0.435   0.855   3.229 -0.2652  1.4103  0.0543
  222SOL    HW2  622   0.525   0.775   3.119 -0.6310  1.4136 -0.2465
  223SOL     OW  623   1.178   1.332   1.963  0.4711  0.0253  0.1693
  223SOL    HW1  624   1.080   1.318   1.951  0.2676 -0.4972  2.0621
  223SOL    HW2  625   1.227   1.246   1.948  0.6797  0.3155 -0.9112
  224SOL     OW  626   0.739   2.297   2.473  0.0219  0.5839 -0.5269
  224SOL    HW1  627   0.814   2.352   2.436  2.2443 -1.8059  0.0888
  224SOL    HW2  628   0.759   2.276   2.569 -0.3886 -1.6975 -0.8853
  225SOL     OW  629   2.878   2.274   1.060  0.3430  1.0257 -0.2751
  225SOL    HW1  630   2.880   2.373   1.047 -0.9563  0.8612 -1.9227
  225SOL    HW2  631   2.945   2.249   1.130  1.8468  2.8895 -0.9608
  226SOL     OW  632   3.588   0.423   1.289  0.0368  0.0547  0.0039
  226SOL    HW1  633   3.542   0.335   1.292  0.2669 -0.0543  0.3467
  226SOL    HW2  634   3.650   0.431   1.366  1.8030 -0.4487 -1.3066
  227SOL     OW  635   0.786   3.058   2.238  0.2170  1.0790 -0.1299
  227SOL    HW1  636   0.847   3.013   2.303 -2.1764  0.9044  2.1455
  227SOL    HW2  637   0.698   3.075   2.281 -1.3326  1.4970 -3.1925
  228SOL     OW  638   1.617   0.681   1.578  0.6079 -0.4244  0.0017
  228SOL    HW1  639   1.706   0.675   1.623 -0.0659 -0.3465  1.3941
  228SOL    HW2  640   1.630   0.699   1.481  2.1099 -0.1742  0.2262
  229SOL     OW  641   2.845   1.283   0.752  0.0719  0.0810 -0.2615
  229SOL    HW1  642   2.845   1.378   0.721 -0.7199  0.2483  0.2155
  229SOL    HW2  643   2.812   1.279   0.846 -2.6241 -0.9180 -1.1654
  230SOL     OW  644   1.188   1.396   1.555  0.2280  0.7750 -0.0135
  230SOL    HW1  645   1.118   1.467   1.567 -1.0762 -0.4443 -0.1070
  230SOL    HW2  646   1.196   1.375   1.457  0.2113  0.4240  0.0598
  231SOL     OW  647   2.246   0.366   0.653 -0.6509 -0.0449 -0.2627
  231SOL    HW1  648   2.298   0.404   0.577 -0.8315  0.2568 -0.2332
  231SOL    HW2  649   2.162   0.418   0.666 -0.3817  0.2210  0.4613
  232SOL     OW  650   3.069   0.651   0.971  0.7738 -0.0344 -0.1672
  232SOL    HW1  651   3.143   0.640   0.905  0.6548 -1.2133 -0.1304
  232SOL    HW2  652   2.988   0.687   0.924  1.0307  0.1948 -0.4368
  233SOL     OW  653   1.448   0.749   1.997 -0.0431 -0.0336 -0.3698
  233SOL    HW1  654   1.442   0.719   1.902  1.1285  0.4268 -0.6022
  233SOL    HW2  655   1.361   0.731   2.043 -0.9158  0.5030 -1.7411
  234SOL     OW  656   1.297   3.499   1.498  0.2559  0.0595  0.1486
  234SOL    HW1  657   1.388   3.474   1.529  0.1703 -0.6635 -0.1704
  234SOL    HW2  658   1.298   3.593   1.463  1.5281 -0.8075 -2.4173
  235SOL     OW  659   1.101   1.434   0.006 -0.1646  0.2887  0.0783
  235SOL    HW1  660   1.172   1.419  -0.063 -0.0111 -3.4144  0.8445
  235SOL    HW2  661   1.130   1.507   0.067  1.2967  1.2852 -1.6818
  236SOL     OW  662   0.349   1.000   1.736  0.5323  0.0011  0.4037
  236SOL    HW1  663   0.331   0.995   1.835  1.9070 -1.0145  0.6286
  236SOL    HW2  664   0.271   1.043   1.691  0.3249  1.4748  2.0470
  237SOL     OW  665   0.648   1.200   1.995 -0.2528  0.3820 -0.9699
  237SOL    HW1  666   0.713   1.231   1.926 -0.1196 -4.4054 -3.3838
  237SOL    HW2  667   0.557   1.235   1.974  0.2883  1.3045 -1.8465
  238SOL     OW  668   0.702   0.750   3.613  0.3344  0.6662  0.0543
  238SOL    HW1  669   0.784   0.799   3.583  0.9398 -0.1191  0.3924
  238SOL    HW2  670   0.715   0.719   3.708 -0.4944  0.8432  0.2264
  239SOL     OW  671   1.767   2.153   0.792 -0.3621  0.2273  0.1742
  239SOL    HW1  672   1.813   2.095   0.858  2.2642  1.2423 -0.6317
  239SOL    HW2  673   1.772   2.249   0.821  1.4655  0.7844 -1.7134
  240SOL     OW  674   0.193   0.285   1.679  0.1272  0.0631 -0.0052
  240SOL    HW1  675   0.259   0.211   1.665 -0.1629 -0.1183 -0.4342
  240SOL    HW2  676   0.236   0.358   1.732  0.1942 -0.7261  1.0614
  241SOL     OW  677   2.811   1.378   0.456 -0.0533  0.4374 -0.0196
  241SOL    HW1  678   2.865   1.425   0.526  0.9310  0.7753 -0.9648
  241SOL    HW2  679   2.829   1.280   0.459  1.7899  0.6886 -1.2450
  242SOL     OW  680   3.661   0.890   2.593  0.0464 -0.5980  0.0302
  242SOL    HW1  681   3.579   0.848   2.554  0.8280 -1.2522 -0.9706
  242SOL    HW2  682   3.742   0.842   2.560  0.8339 -0.1609  1.2413
  243SOL     OW  683   3.345   2.735   0.687  0.0309 -0.0533 -0.5163
  243SOL    HW1  684   3.388   2.662   0.741 -0.2213 -0.3305 -0.6877
  243SOL    HW2  685   3.251   2.709   0.666  0.5182 -0.5491 -2.2098
  244SOL     OW  686   0.393   0.881   0.800  0.1619  0.0073 -0.1520
  244SOL    HW1  687   0.472   0.923   0.756 -0.7970  1.0083 -1.0011
  244SOL    HW2  688   0.314   0.942   0.791 -1.0173 -1.4826 -0.4042
  245SOL     OW  689   0.874   3.310   1.924  1.0125 -0.0060  1.3771
  245SOL    HW1  690   0.806   3.363   1.974  0.3779  0.2081  0.3100
  245SOL    HW2  691   0.853   3.212   1.933  0.7005  0.0474  1.2446
  246SOL     OW  692   0.321   0.838   3.394  0.3626  0.2046  0.4132
  246SOL    HW1  693   0.341   0.844   3.492 -0.9816 -0.5493  0.7472
  246SOL    HW2  694   0.261   0.912   3.367 -0.5532 -0.4838  0.5079
  247SOL     OW  695   0.180   0.415   0.213  0.2439 -0.7174 -0.8796
  247SOL    HW1  696   0.155   0.446   0.121 -0.3341 -0.9165 -0.7976
  247SOL    HW2  697   0.121   0.338   0.239 -0.7735  0.4030  0.3153
  248SOL     OW  698   0.374   2.728   0.556 -0.2592 -0.2788 -0.5093
  248SOL    HW1  699   0.353   2.667   0.632 -2.3444  0.3821 -0.4883
  248SOL    HW2  700   0.365   2.823   0.586 -2.3235  0.0030 -1.8083
  249SOL     OW  701   3.637   2.601   3.353 -0.0753  0.0453 -0.0288
  249SOL    HW1  702   3.626   2.698   3.330  1.1598  0.3785  0.6432
  249SOL    HW2  703   3.567   2.574   3.419 -0.0335  0.6754  0.2838
  250SOL     OW  704   3.245   2.402   1.316 -0.1752 -0.3322 -0.2403
  250SOL    HW1  705   3.252   2.403   1.217 -1.2742 -0.3990 -0.3243
  250SOL    HW2  706   3.337   2.398   1.356  0.2254 -3.3948 -1.2771
  251SOL     OW  707   1.100   3.632   0.696 -0.5320 -0.3396  0.6773
  251SOL    HW1  708   1.192   3.667   0.711  0.1076 -1.4028 -0.5350
  251SOL    HW2  709   1.033   3.695   0.736  0.5047  2.4957 -1.6971
  252SOL     OW  710   0.891   1.989   0.916 -0.0951 -0.1965  0.3296
  252SOL    HW1  711   0.796   1.960   0.921 -0.3998  0.0020 -2.5649
  252SOL    HW2  712   0.896   2.082   0.878  1.2618 -1.7574 -3.8781
  253SOL     OW  713   0.167   0.589   1.316  0.2658 -0.4390 -0.9294
  253SOL    HW1  714   0.233   0.524   1.279  0.8210 -0.5213  0.1597
  253SOL    HW2  715   0.125   0.549   1.398 -1.4274 -0.5519 -1.8091
  254SOL     OW  716   0.656   0.891   0.629 -0.1709 -0.1946 -0.3062
  254SOL    HW1  717   0.736   0.912   0.685 -0.4991  0.3263 -0.0240
  254SOL    HW2  718   0.629   0.972   0.577  1.9128 -1.3912 -3.5765
  255SOL     OW  719   0.442   1.184   1.312 -0.1263 -0.8791 -0.8944
  255SOL    HW1  720   0.382   1.251   1.356  0.1473 -1.5179  0.5433
  255SOL    HW2  721   0.411   1.092   1.337 -0.3610 -1.3085 -2.6429
  256SOL     OW  722   2.974   0.393   1.715 -0.5808 -0.5862  0.5655
  256SOL    HW1  723   2.985   0.304   1.758  0.5695 -1.7980 -1.9910
  256SOL    HW2  724   2.879   0.406   1.687 -0.4034 -1.9448 -0.7819
  257SOL     OW  725   0.077   2.795   2.213  0.0641 -0.3971  0.4755
  257SOL    HW1  726   0.113   2.713   2.171 -1.5475 -1.1964  0.5831
  257SOL    HW2  727   0.097   2.794   2.311  1.1428 -0.0319  0.2657
  258SOL     OW  728   2.948   2.875   1.848 -0.0305 -0.7635  0.0314
  258SOL    HW1  729   2.972   2.966   1.882 -0.8820 -0.7006  0.4895
  258SOL    HW2  730   3.001   2.806   1.896  0.9462 -0.4896 -0.6280
  259SOL     OW  731   3.688   1.037   0.154  0.2134  0.4782  0.0260
  259SOL    HW1  732   3.742   1.104   0.203 -0.6595  1.7864 -0.7398
  259SOL    HW2  733   3.633   1.083   0.084 -2.1897 -0.7188  1.0301
  260SOL     OW  734   0.951   0.908   1.503 -0.1535 -0.2302  0.7119
  260SOL    HW1  735   0.966   0.907   1.404 -0.4985 -0.1816  0.6554
  260SOL    HW2  736   1.010   0.839   1.546 -0.9442 -1.1908  0.3192
  261SOL     OW  737   1.255   1.346   2.231  0.2546 -0.3080 -0.1072
  261SOL    HW1  738   1.230   1.352   2.135  1.3170 -1.0572 -0.4420
  261SOL    HW2  739   1.328   1.279   2.243  1.5940  1.2448  0.9179
  262SOL     OW  740   2.039   2.657   1.508 -0.8693 -0.0460 -0.3037
  262SOL    HW1  741   1.999   2.573   1.473  1.5435 -0.3033 -2.8321
  262SOL    HW2  742   2.083   2.707   1.433  1.0234  1.5623  1.7227
  263SOL     OW  743   1.055   0.263   1.883 -0.0323 -0.0255  0.4803
  263SOL    HW1  744   1.130   0.262   1.818  1.1610  0.2025  1.8126
  263SOL    HW2  745   1.089   0.243   1.975 -1.3387  1.4588  1.3596
  264SOL     OW  746   0.813   0.320   0.261  1.0000 -0.0984  0.4260
  264SOL    HW1  747   0.813   0.280   0.170 -1.4807  1.6065 -0.4254
  264SOL    HW2  748   0.791   0.250   0.328  1.7087 -1.1303 -0.3783
  265SOL     OW  749   2.643   3.470   3.284  0.3257  0.0254  0.1860
  265SOL    HW1  750   2.654   3.389   3.226 -1.2301  0.4117 -0.7099
  265SOL    HW2  751   2.639   3.441   3.379  1.4276 -0.7707  0.0192
  266SOL     OW  752   1.396   0.794   0.257  0.0426 -0.1052 -0.2020
  266SOL    HW1  753   1.357   0.852   0.185  0.7465 -0.1936 -0.6596
  266SOL    HW2  754   1.344   0.807   0.342  0.0030  0.9781 -0.3773
  267SOL     OW  755   0.338   0.084   1.610  0.2609  0.1903 -0.3692
  267SOL    HW1  756   0.411   0.041   1.663  0.8555  1.6105  0.0264
  267SOL    HW2  757   0.303   0.019   1.542  1.6066 -0.6649 -0.2877
  268SOL     OW  758   1.628   0.950   0.238  0.5839 -0.1601 -0.0174
  268SOL    HW1  759   1.548   0.893   0.257 -0.6010  1.7344  0.9017
  268SOL    HW2  760   1.694   0.897   0.185 -1.1491 -1.8609 -0.5945
  269SOL     OW  761   1.595   3.139   2.290  0.6090 -0.2566 -0.1703
  269SOL    HW1  762   1.566   3.229   2.258  1.9077 -0.3956 -1.8855
  269SOL    HW2  763   1.599   3.076   2.213  2.7040 -0.9524  0.4367
  270SOL     OW  764   0.549   3.091   2.364 -0.4421 -0.0613  0.5698
  270SOL    HW1  765   0.517   3.092   2.459  1.2661  0.2029  1.1630
  270SOL    HW2  766   0.475   3.124   2.304 -1.7251 -0.7302  1.7180
  271SOL     OW  767   0.228   1.828   1.938 -0.8615  0.5216  0.2197
  271SOL    HW1  768   0.264   1.911   1.896  1.7880  0.1102  1.4610
  271SOL    HW2  769   0.204   1.762   1.867  2.3077  0.3015 -0.8224
  272SOL     OW  770   1.460   1.232   3.021 -0.2348  0.0158 -0.3792
  272SOL    HW1  771   1.410   1.215   2.936  1.0317 -1.9312 -0.7922
  272SOL    HW2  772   1.552   1.263   3.000  0.4581 -1.5334  0.2179
  273SOL     OW  773   2.662   0.122   3.585 -0.2360 -0.8264  0.0516
  273SOL    HW1  774   2.754   0.085   3.570 -0.2463  0.0700 -2.7685
  273SOL    HW2  775   2.594   0.055   3.554 -0.3844 -0.1667 -1.1082
  274SOL     OW  776   0.865   1.055   3.327  0.1991  0.6900 -0.0359
  274SOL    HW1  777   0.891   1.002   3.407  0.9422  1.4149  0.2162
  274SOL    HW2  778   0.771   1.087   3.337  0.5209  1.3726  0.8825
  275SOL     OW  779   3.160   1.468   0.021 -0.3730  0.1878  0.0857
  275SOL    HW1  780   3.135   1.485   0.117 -0.9722  3.6335 -0.5393
  275SOL    HW2  781   3.084   1.494  -0.038  0.7805  0.2711 -1.4199
  276SOL     OW  782   0.789   0.317   0.745 -0.5522  0.6214  0.5079
  276SOL    HW1  783   0.716   0.355   0.803 -1.3119 -0.1488  0.0666
  276SOL    HW2  784   0.873   0.312   0.798 -0.4331  2.8076  0.6367
  277SOL     OW  785   2.112   0.021   3.253 -0.1597  0.6368  0.0983
  277SOL    HW1  786   2.096  -0.043   3.328 -0.5983  0.8963  0.2250
  277SOL    HW2  787   2.109   0.115   3.287 -1.8682  0.8324 -0.4933
  278SOL     OW  788   2.626   1.355   1.857  0.3513 -0.4549  0.0856
  278SOL    HW1  789   2.683   1.423   1.902 -0.3861 -0.0778  0.4732
  278SOL    HW2  790   2.544   1.338   1.912  0.6193 -1.8138  0.0973
  279SOL     OW  791   3.363   0.547   1.781 -0.4257 -0.4037  0.5611
  279SOL    HW1  792   3.350   0.646   1.778  0.3915 -0.2004  2.4129
  279SOL    HW2  793   3.302   0.503   1.714 -1.9072  1.2345  0.7643
  280SOL     OW  794   1.091   3.561   2.848 -0.0790  0.3362  0.4097
  280SOL    HW1  795   1.117   3.480   2.899 -0.6333 -0.5243 -0.6438
  280SOL    HW2  796   1.133   3.642   2.889  1.5770 -0.6272  0.6577
  281SOL     OW  797   1.446   1.522   3.132  0.1485  0.7099  0.0442
  281SOL    HW1  798   1.471   1.427   3.112 -0.0707  0.5332  0.5754
  281SOL    HW2  799   1.360   1.523   3.184 -0.5834  1.2676 -1.1430
  282SOL     OW  800   0.548   1.241   0.798  0.0807  0.3120 -0.1884
  282SOL    HW1  801   0.500   1.293   0.728  1.1513  0.3068 -0.9454
  282SOL    HW2  802   0.481   1.197   0.858 -0.9102 -0.5405 -1.8217
  283SOL     OW  803   1.225   0.516   3.136  0.5112 -0.6613 -0.0798
  283SOL    HW1  804   1.308   0.567   3.160  1.4200 -1.9576 -0.3324
  283SOL    HW2  805   1.146   0.577   3.142  1.6318  1.0459 -1.2850
  284SOL     OW  806   1.864   1.843   0.957 -0.4708 -0.3509 -0.3499
  284SOL    HW1  807   1.770   1.864   0.931 -0.1900  1.9139  0.2327
  284SOL    HW2  808   1.906   1.787   0.886 -2.1827 -1.2430 -0.7101
  285SOL     OW  809   0.069   0.280   2.473  0.3966 -0.4203 -0.0401
  285SOL    HW1  810   0.097   0.250   2.381 -1.2204 -0.6877 -0.4785
  285SOL    HW2  811   0.054   0.199   2.530  0.0165 -0.2988  0.0296
  286SOL     OW  812   2.361   1.497   0.079  0.5716 -0.1473  0.4097
  286SOL    HW1  813   2.450   1.457   0.059  1.0521  0.8399  0.5054
  286SOL    HW2  814   2.362   1.538   0.170 -0.7052 -2.0844  1.3533
  287SOL     OW  815   0.479   2.370   2.503  0.2399 -0.1153 -0.1705
  287SOL    HW1  816   0.577   2.353   2.500  0.3873  0.6967 -0.1235
  287SOL    HW2  817   0.457   2.428   2.581  0.0446  1.5817 -1.4162
  288SOL     OW  818   1.706   2.547   2.529 -0.1602  0.5061  0.0686
  288SOL    HW1  819   1.783   2.488   2.554 -0.1697  0.7774  0.7945
  288SOL    HW2  820   1.735   2.610   2.457 -1.0780 -2.4489 -3.1019
  289SOL     OW  821   0.034   3.254   0.463  0.2849 -0.2242 -0.3934
  289SOL    HW1  822  -0.010   3.283   0.379  0.1055  2.1211  0.4258
  289SOL    HW2  823   0.017   3.321   0.535  1.2412 -1.6512  1.2680
  290SOL     OW  824   0.960   2.266   3.085 -0.0451  0.0861  0.1298
  290SOL    HW1  825   0.955   2.246   3.183 -0.9882  1.8566  0.4846
  290SOL    HW2  826   0.888   2.217   3.037  0.5441 -0.9477  0.2818
  291SOL     OW  827   1.471   1.172   2.274  0.1951 -0.1869 -0.2746
  291SOL    HW1  828   1.492   1.076   2.259 -0.8780 -0.7747  1.6492
  291SOL    HW2  829   1.480   1.193   2.372 -2.0656  1.0278 -0.2705
  292SOL     OW  830   0.303   1.561   0.844 -0.0325  0.3874 -0.0501
  292SOL    HW1  831   0.335   1.518   0.929 -0.1430 -0.3175 -0.3667
  292SOL    HW2  832   0.248   1.496   0.792  0.6997  0.5531 -1.0502
  293SOL     OW  833   1.269   2.474   2.812 -0.0553  0.5566 -0.2687
  293SOL    HW1  834   1.298   2.445   2.904 -0.8683  0.1914 -0.1227
  293SOL    HW2  835   1.187   2.531   2.819  0.2362  1.0412 -0.7289
  294SOL     OW  836   1.734   1.743   1.964 -0.0133 -0.3215 -0.3493
  294SOL    HW1  837   1.681   1.659   1.982  0.1091 -0.1626  0.8047
  294SOL    HW2  838   1.711   1.777   1.873 -0.6021 -1.2140 -0.5522
  295SOL     OW  839   0.347   3.560   1.969 -0.3489 -0.0322  0.1062
  295SOL    HW1  840   0.265   3.514   1.935  0.2168 -0.1149 -1.2370
  295SOL    HW2  841   0.410   3.492   2.006 -0.0189 -0.2234 -0.7821
  296SOL     OW  842   0.294  -0.013   2.599 -0.4667  0.1208 -0.3505
  296SOL    HW1  843   0.311  -0.001   2.501 -0.2759  1.9342 -0.1207
  296SOL    HW2  844   0.202   0.019   2.621  0.0099  1.0836  0.2920
  297SOL     OW  845   0.353   1.665   2.155  0.5868 -0.9275 -0.4843
  297SOL    HW1  846   0.338   1.718   2.238  0.8370 -0.0539 -0.9928
  297SOL    HW2  847   0.308   1.710   2.077  1.5192 -0.9887 -1.0775
  298SOL     OW  848   1.012   3.202   3.523 -0.2320  0.3720 -0.4875
  298SOL    HW1  849   0.919   3.163   3.520 -0.6207  1.3026 -2.2720
  298SOL    HW2  850   1.076   3.139   3.479 -0.1476  0.0384  0.1139
  299SOL     OW  851   0.803   3.615   3.049 -0.1698  0.0695  0.3558
  299SOL    HW1  852   0.736   3.689   3.040 -0.6414 -0.4361 -0.4617
  299SOL    HW2  853   0.808   3.565   2.962  0.6091 -0.4583  0.7013
  300SOL     OW  854   3.672   3.668   0.991 -0.0385  0.1877 -0.1026
  300SOL    HW1  855   3.753   3.612   1.004  0.1330  0.7461  1.4053
  300SOL    HW2  856   3.693   3.743   0.927 -0.3288 -1.4894 -2.2855
  301SOL     OW  857   3.415   2.369   0.360 -0.2891  0.4801  0.3718
  301SOL    HW1  858   3.336   2.390   0.303 -1.0318 -0.7373  0.9046
  301SOL    HW2  859   3.486   2.438   0.346 -0.8093  0.7166 -1.3176
  302SOL     OW  860   2.928  -0.011   2.781  0.9436  0.4471  0.4262
  302SOL    HW1  861   3.007  -0.005   2.720 -0.3729  1.7495 -1.2502
  302SOL    HW2  862   2.881   0.077   2.783 -0.4259 -0.2736  1.4596
  303SOL     OW  863   0.659   0.232   1.546  0.0939 -0.6193  0.7663
  303SOL    HW1  864   0.691   0.290   1.621 -1.1759 -0.6044  1.3102
  303SOL    HW2  865   0.735   0.175   1.514  1.9942  2.6148 -1.0639
  304SOL     OW  866   1.384   1.736   2.054  0.3086  0.1251  0.3227
  304SOL    HW1  867   1.303   1.704   2.006 -0.5086 -1.5125  2.6753
  304SOL    HW2  868   1.465   1.690   2.017 -0.0930  0.0398 -0.4735
  305SOL     OW  869   0.183   2.957   1.842 -0.2152  0.5211 -0.6890
  305SOL    HW1  870   0.218   2.864   1.833  0.0107  0.4277  0.9626
  305SOL    HW2  871   0.227   3.016   1.774  0.1103 -0.4393 -1.3204
  306SOL     OW  872   0.313   1.414   2.965 -0.3093 -0.0702  0.3137
  306SOL    HW1  873   0.223   1.414   3.007 -0.7140  0.9243 -0.4914
  306SOL    HW2  874   0.304   1.404   2.866  0.4182  0.4628  0.1778
  307SOL     OW  875   1.205   1.471   3.269 -0.0323 -0.0009 -0.0425
  307SOL    HW1  876   1.115   1.509   3.249 -0.1293 -0.5080 -0.5925
  307SOL    HW2  877   1.200   1.371   3.268  0.1279 -0.0609  1.8134
  308SOL     OW  878   2.668   1.582   2.568  0.7977  0.7420  0.0165
  308SOL    HW1  879   2.710   1.575   2.659  0.6218 -0.7538  0.0200
  308SOL    HW2  880   2.572   1.607   2.577  0.2377 -1.3275  0.4395
  309SOL     OW  881   0.660   1.288   2.510  0.7902 -0.0600  0.0951
  309SOL    HW1  882   0.664   1.261   2.414 -1.2964  1.3252 -0.4557
  309SOL    HW2  883   0.583   1.242   2.554  1.5202 -0.4139  1.0417
  310SOL     OW  884   3.171   3.486   1.415 -0.7939  0.2063  0.1138
  310SOL    HW1  885   3.208   3.419   1.351  0.0162  0.3049  0.4694
  310SOL    HW2  886   3.146   3.441   1.500  0.8159  0.5072  0.7770
  311SOL     OW  887   2.103   1.090   2.070  0.0282  0.5072 -0.1555
  311SOL    HW1  888   2.184   1.124   2.117 -0.4893  1.0957  0.3290
  311SOL    HW2  889   2.131   1.026   1.998  0.8718  0.1127  0.4954
  312SOL     OW  890   2.648   2.707   3.443 -0.6204  0.0598  0.2670
  312SOL    HW1  891   2.617   2.794   3.480  0.4586  1.1084 -1.2015
  312SOL    HW2  892   2.721   2.671   3.500  0.9087  1.5743 -0.6516
  313SOL     OW  893   3.582   3.168   2.205 -0.2205 -0.0591  0.4728
  313SOL    HW1  894   3.555   3.087   2.153  0.7723  0.1584 -0.3949
  313SOL    HW2  895   3.607   3.242   2.143  0.9562  0.2220  1.2454
  314SOL     OW  896   0.754   1.057  -0.025  0.1957 -0.6086  0.2986
  314SOL    HW1  897   0.729   1.152  -0.042  1.5504 -0.5421 -1.6456
  314SOL    HW2  898   0.723   1.030   0.067  1.2176  2.2012  1.5934
  315SOL     OW  899   2.630   0.569   0.833 -0.1245 -0.0603 -0.0519
  315SOL    HW1  900   2.616   0.490   0.773 -0.4222 -0.8395  0.9944
  315SOL    HW2  901   2.562   0.566   0.907 -0.4764  1.4839 -0.2924
  316SOL     OW  902   3.366   0.079   1.691 -0.4428  0.8069 -0.5019
  316SOL    HW1  903   3.308   0.099   1.612 -1.8571 -1.1101 -0.0393
  316SOL    HW2  904   3.318   0.016   1.752  2.3400 -1.3249 -0.3227
  317SOL     OW  905   2.796   0.839   2.292 -0.1512 -0.1440  0.1479
  317SOL    HW1  906   2.841   0.831   2.381 -0.6108  0.0880  0.4052
  317SOL    HW2  907   2.807   0.932   2.258  0.1337 -0.2679 -0.0970
  318SOL     OW  908   1.332   1.840   2.747 -0.1228  0.2127 -0.5574
  318SOL    HW1  909   1.257   1.774   2.751 -0.4948  0.5881 -1.1567
  318SOL    HW2  910   1.318   1.910   2.817 -1.2570  1.2155 -1.7148
  319SOL     OW  911   1.358   0.444   0.313  0.0080  0.5031  0.0424
  319SOL    HW1  912   1.357   0.460   0.215 -1.0040  0.8397  0.0930
  319SOL    HW2  913   1.334   0.529   0.361 -2.2048 -0.2959  0.4543
  320SOL     OW  914   3.219   3.156   3.562 -0.3948 -0.3415  0.0897
  320SOL    HW1  915   3.130   3.183   3.528 -1.2258 -0.7271  1.8375
  320SOL    HW2  916   3.278   3.131   3.485 -1.6614  0.2373 -1.1150
  321SOL     OW  917   1.678   3.714   3.604  0.6574  0.2846 -0.0760
  321SOL    HW1  918   1.777   3.728   3.596  0.6520  1.1754  1.1562
  321SOL    HW2  919   1.652   3.633   3.551  1.7699  0.9722 -1.7614
  322SOL     OW  920   0.712   3.474   2.078  0.5557  0.2379 -0.0496
  322SOL    HW1  921   0.672   3.565   2.068  0.3823  0.1799  0.0970
  322SOL    HW2  922   0.762   3.469   2.165 -3.6043 -1.2891  2.6018
  323SOL     OW  923   1.570   2.364   0.098 -0.6880 -0.4160 -0.5132
  323SOL    HW1  924   1.605   2.422   0.024 -0.7613 -0.6807 -0.7577
  323SOL    HW2  925   1.565   2.417   0.183 -0.7496 -0.0670 -0.7350
  324SOL     OW  926   0.581   3.459   3.275 -0.5102 -0.6320 -0.3177
  324SOL    HW1  927   0.605   3.411   3.190 -1.0211 -3.1980  0.9141
  324SOL    HW2  928   0.517   3.533   3.254 -0.3853 -1.0078 -2.1869
  325SOL     OW  929   2.315   2.718   3.543  0.1032 -0.2739  0.2431
  325SOL    HW1  930   2.397   2.662   3.532 -0.4889 -1.4829  1.5907
  325SOL    HW2  931   2.265   2.689   3.625 -1.7390  0.3269 -0.5975
  326SOL     OW  932   1.205   1.092   3.547 -0.5181  0.5502 -0.5488
  326SOL    HW1  933   1.190   1.037   3.465  0.7966  0.4549 -0.7434
  326SOL    HW2  934   1.121   1.142   3.569 -0.9186  0.5075 -1.8782
  327SOL     OW  935   1.289   3.056   0.881 -0.6614 -0.4323  0.0615
  327SOL    HW1  936   1.201   3.012   0.866 -1.5472  0.5475  1.9737
  327SOL    HW2  937   1.316   3.045   0.977 -0.2039  1.8588  0.2566
  328SOL     OW  938   3.687   0.082   3.340 -0.3881 -0.1755 -0.0207
  328SOL    HW1  939   3.603   0.031   3.322 -0.7400  0.0586  0.8659
  328SOL    HW2  940   3.701   0.088   3.439  1.0122 -0.7513 -0.1629
  329SOL     OW  941   1.521   3.364   1.291  0.2782  0.3208  0.2580
  329SOL    HW1  942   1.504   3.390   1.386 -0.5002 -0.4412  0.3336
  329SOL    HW2  943   1.566   3.275   1.288  0.8766  0.6288 -0.0739
  330SOL     OW  944   0.276   3.312   0.767  0.2638 -0.2987  0.2757
  330SOL    HW1  945   0.371   3.292   0.742 -0.1844 -2.2722 -0.0917
  330SOL    HW2  946   0.233   3.228   0.800 -1.9379  0.0135 -1.5349
  331SOL     OW  947   2.979   3.588   0.710 -0.8111  0.2635 -0.4233
  331SOL    HW1  948   3.063   3.538   0.687 -0.2178  1.1654 -0.2961
  331SOL    HW2  949   2.959   3.577   0.807 -0.6432  0.3171 -0.3815
  332SOL     OW  950   1.255   0.324   1.686  0.1869 -0.4166  0.4105
  332SOL    HW1  951   1.277   0.375   1.603  1.1310 -0.2350  0.7483
  332SOL    HW2  952   1.311   0.358   1.762  0.7126 -1.8135  0.6918
  333SOL     OW  953   0.803   1.038   2.741 -0.3372  0.0074 -0.2408
  333SOL    HW1  954   0.766   1.047   2.648 -0.1044  0.0883 -0.3287
  333SOL    HW2  955   0.813   0.941   2.763 -0.8393 -0.0160 -0.1175
  334SOL     OW  956   0.843   1.246   3.145  0.2588  0.1186  0.1514
  334SOL    HW1  957   0.842   1.232   3.046 -2.4482 -1.5994  0.3128
  334SOL    HW2  958   0.844   1.157   3.191 -1.5286  0.7935  1.6042
  335SOL     OW  959   1.061   1.279   2.857 -0.1549 -0.5505  0.3410
  335SOL    HW1  960   1.064   1.182   2.883 -0.9646 -0.4586  0.8014
  335SOL    HW2  961   1.009   1.289   2.772  0.9901 -0.6493 -0.3922
  336SOL     OW  962   0.037   3.714   1.439 -0.2292  0.3647 -0.1182
  336SOL    HW1  963  -0.023   3.736   1.516 -2.0552 -1.5442 -0.9118
  336SOL    HW2  964   0.109   3.651   1.469 -0.9687 -0.4187  0.0179
  337SOL     OW  965   0.036   1.713   0.027  0.5971  0.3063 -0.1891
  337SOL    HW1  966   0.044   1.791   0.089 -0.6536  0.8731 -0.7254
  337SOL    HW2  967  -0.029   1.647   0.065  1.4333 -0.3596  0.1222
  338SOL     OW  968   1.919   3.435   2.412  0.0723  0.0544 -0.5232
  338SOL    HW1  969   1.865   3.504   2.364 -0.9912 -0.9150 -0.7774
  338SOL    HW2  970   1.990   3.399   2.351  0.0593  0.2950 -0.6795
  339SOL     OW  971   3.609   3.384   3.257  0.1960 -0.3790 -0.0267
  339SOL    HW1  972   3.614   3.351   3.352 -0.8427  1.3963  0.7018
  339SOL    HW2  973   3.684   3.345   3.204  2.6819  0.9307  2.2839
  340SOL     OW  974   0.987   2.901   1.225  0.1444  0.0431 -0.1155
  340SOL    HW1  975   1.029   2.812   1.244  0.7635  0.0363 -1.3751
  340SOL    HW2  976   0.906   2.913   1.282  0.3598 -1.0963  0.4581
  341SOL     OW  977   1.258   2.631   1.820  0.1903 -0.0524 -0.0557
  341SOL    HW1  978   1.199   2.609   1.898 -0.9892 -0.5303 -1.0456
  341SOL    HW2  979   1.351   2.601   1.839 -0.2269 -0.8053  0.8859
  342SOL     OW  980   1.420   2.707   1.061 -0.3321 -0.1943 -0.3030
  342SOL    HW1  981   1.419   2.633   1.129  1.2569 -1.2774 -1.3848
  342SOL    HW2  982   1.509   2.753   1.063 -0.7852  0.7271 -0.6694
  343SOL     OW  983   0.803   0.541   2.401  0.1465  0.6050  0.2104
  343SOL    HW1  984   0.861   0.518   2.479  1.1280  0.3783 -0.5744
  343SOL    HW2  985   0.732   0.606   2.430 -0.7514 -0.9678  1.7435
  344SOL     OW  986   0.805   3.726   1.466  0.0702  0.3681 -0.0548
  344SOL    HW1  987   0.893   3.678   1.464  2.1787  3.7919  1.8624
  344SOL    HW2  988   0.738   3.670   1.516  2.1609 -0.8904  1.4847
  345SOL     OW  989   2.228   1.026   2.627 -0.2116  0.7256 -0.2992
  345SOL    HW1  990   2.304   1.025   2.563 -0.0578  1.7137 -0.1555
  345SOL    HW2  991   2.251   0.972   2.708  0.7770  1.8736  0.2100
  346SOL     OW  992   3.035   2.935   0.830 -0.5742 -0.4667 -0.3105
  346SOL    HW1  993   3.022   2.928   0.929  0.3969 -0.4581 -0.1740
  346SOL    HW2  994   2.948   2.921   0.784 -1.1140 -0.0660  0.5664
  347SOL     OW  995   3.279   3.556   1.161 -0.0090  0.0672  0.7720
  347SOL    HW1  996   3.375   3.574   1.185 -0.2438  1.6119  0.6093
  347SOL    HW2  997   3.225   3.546   1.245 -0.0190  0.9770  0.8788
  348SOL     OW  998   1.904   0.690   0.406  0.0709  0.0529  0.8952
  348SOL    HW1  999   1.820   0.645   0.378 -0.1784  0.6701  0.6353
  348SOL    HW2 1000   1.983   0.644   0.365 -0.0753 -0.9619  1.6933
  349SOL     OW 1001   0.881   0.305   3.050  0.0538  0.0866 -0.0799
  349SOL    HW1 1002   0.830   0.248   3.114 -0.0708 -0.2012 -0.4336
  349SOL    HW2 1003   0.837   0.303   2.960 -1.8143  3.2854  0.6273
  350SOL     OW 1004   1.681   2.173   0.315  0.2187 -0.2338  0.1596
  350SOL    HW1 1005   1.751   2.198   0.248  0.5600 -0.5421  0.3959
  350SOL    HW2 1006   1.595   2.217   0.292  0.4093 -0.1126 -0.3208
  351SOL     OW 1007   1.131   2.782   3.322  0.1667  0.1730 -0.6863
  351SOL    HW1 1008   1.190   2.838   3.380  1.5745 -0.5850 -1.3277
  351SOL    HW2 1009   1.035   2.799   3.345  0.6575  0.1433  1.6099
  352SOL     OW 1010   2.325   1.654   0.322 -0.4534  0.2623 -0.0053
  352SOL    HW1 1011   2.227   1.673   0.318 -0.3150  0.9015 -0.4356
  352SOL    HW2 1012   2.347   1.612   0.410 -0.7335  2.3311  1.1194
  353SOL     OW 1013   0.581   0.434   1.362  0.5415 -0.4513  0.4961
  353SOL    HW1 1014   0.489   0.409   1.332  1.2501 -1.4938 -0.9553
  353SOL    HW2 1015   0.609   0.376   1.438  0.0931 -0.2679  0.8049
  354SOL     OW 1016   3.594   0.979   3.163 -0.5844 -0.5963  0.8241
  354SOL    HW1 1017   3.538   0.975   3.246 -1.1984 -0.9000  0.4039
  354SOL    HW2 1018   3.535   0.968   3.083 -0.0216 -0.1062  0.3393
  355SOL     OW 1019   0.573   1.599   2.517 -0.2729  0.0233  0.1875
  355SOL    HW1 1020   0.484   1.630   2.548 -0.7560 -1.7023  0.6351
  355SOL    HW2 1021   0.585   1.503   2.540  1.4492  0.0435 -0.4456
  356SOL     OW 1022   0.600   0.127   2.972  0.1136 -0.2290 -0.1414
  356SOL    HW1 1023   0.550   0.084   2.897 -0.4960  0.0549  0.0998
  356SOL    HW2 1024   0.637   0.214   2.942  1.3684 -0.9063 -0.6375
  357SOL     OW 1025   1.684   0.464   2.398 -0.0199 -0.0258 -0.0224
  357SOL    HW1 1026   1.707   0.498   2.489  0.4789  0.1560 -0.2104
  357SOL    HW2 1027   1.759   0.407   2.364 -0.5938 -0.8422  0.0471
  358SOL     OW 1028   0.592   0.718   2.488  0.5007  0.7243  0.1931
  358SOL    HW1 1029   0.639   0.806   2.502  1.1285  0.7305 -1.6007
  358SOL    HW2 1030   0.498   0.736   2.459  0.2214  0.7613  1.0894
  359SOL     OW 1031   1.275   1.295   0.919  0.6185 -0.0466 -0.6404
  359SOL    HW1 1032   1.229   1.206   0.914  2.5589 -1.0794 -1.0559
  359SOL    HW2 1033   1.368   1.282   0.952  0.6081  1.9980  0.3148
  360SOL     OW 1034   2.825   0.764   0.843 -0.4360 -0.0028 -0.4555
  360SOL    HW1 1035   2.766   0.684   0.852 -0.6217  0.3467  2.1046
  360SOL    HW2 1036   2.802   0.813   0.759 -0.8436 -2.1766 -1.6868
  361SOL     OW 1037   1.538   1.957   2.558  0.1012 -0.3575  0.3520
  361SOL    HW1 1038   1.591   1.874   2.569 -0.0819 -0.3294  1.6748
  361SOL    HW2 1039   1.454   1.950   2.612  0.2629  0.8240  0.7812
  362SOL     OW 1040   3.321   1.453   2.501 -0.0675 -0.0225  0.0327
  362SOL    HW1 1041   3.373   1.531   2.534  1.3439 -0.1244 -1.7718
  362SOL    HW2 1042   3.368   1.368   2.527  0.3125 -0.1376 -0.9776
  363SOL     OW 1043   1.739   0.055   1.590 -0.5351 -0.3869 -0.0012
  363SOL    HW1 1044   1.733  -0.025   1.649 -1.1342 -1.0307 -0.9204
  363SOL    HW2 1045   1.692   0.037   1.504  0.5080  0.4608 -0.7770
  364SOL     OW 1046   1.781   1.504   3.317 -0.2106 -0.0415  0.3396
  364SOL    HW1 1047   1.818   1.575   3.377  0.2614  0.7198 -0.8015
  364SOL    HW2 1048   1.766   1.543   3.226  3.0613 -2.1251 -1.2706
  365SOL     OW 1049   3.052   3.398   3.459 -0.4231 -0.6621 -0.1510
  365SOL    HW1 1050   3.066   3.472   3.525  0.6943 -0.0716 -1.0296
  365SOL    HW2 1051   3.008   3.321   3.505  0.3178 -0.2615  1.2829
  366SOL     OW 1052   1.694   1.174   0.105 -0.2225  0.0225  0.1454
  366SOL    HW1 1053   1.683   1.244   0.175 -2.8742 -0.0109 -0.1340
  366SOL    HW2 1054   1.661   1.087   0.139 -1.2974 -0.0570 -1.0089
  367SOL     OW 1055  -0.012   0.345   1.007 -0.1563 -0.1493 -0.3070
  367SOL    HW1 1056   0.051   0.415   0.974 -0.1983  0.4371  0.8180
  367SOL    HW2 1057   0.028   0.300   1.087 -1.7997  1.3403  1.4403
  368SOL     OW 1058   3.540   3.713   2.996  0.2790 -0.0167 -0.0103
  368SOL    HW1 1059   3.501   3.655   2.925  1.9837 -0.3173 -0.7626
  368SOL    HW2 1060   3.523   3.672   3.085  0.5705 -1.1851 -0.4602
  369SOL     OW 1061   0.598   0.691   2.909  0.0928 -0.1225  0.2202
  369SOL    HW1 1062   0.574   0.595   2.924  0.0178 -0.0479  0.5894
  369SOL    HW2 1063   0.666   0.697   2.836 -0.7379 -0.3656 -0.6023
  370SOL     OW 1064   1.426   0.717   2.574  0.0103 -0.5921  0.1656
  370SOL    HW1 1065   1.350   0.781   2.573 -0.3215 -0.9514  1.2549
  370SOL    HW2 1066   1.423   0.662   2.657  1.2397 -0.8827  0.0472
  371SOL     OW 1067   1.430   1.641   0.575 -0.2209 -0.1114 -0.3593
  371SOL    HW1 1068   1.361   1.569   0.582  0.1800 -0.5511 -0.8335
  371SOL    HW2 1069   1.518   1.606   0.606 -0.2398  0.5105  0.4433
  372SOL     OW 1070   0.501   2.322   2.988 -0.4814 -0.4505 -0.0639
  372SOL    HW1 1071   0.539   2.306   3.079 -0.5739 -0.0211  0.0522
  372SOL    HW2 1072   0.432   2.252   2.968  0.6536 -1.4792 -0.4465
  373SOL     OW 1073   0.502   1.230   3.012 -0.0450  0.2816 -0.2680
  373SOL    HW1 1074   0.577   1.227   2.945  0.3897 -0.6593  0.2435
  373SOL    HW2 1075   0.443   1.309   2.992  0.5984  0.5515 -1.1903
  374SOL     OW 1076   3.509   2.912   2.929  0.0464 -0.4495  0.8677
  374SOL    HW1 1077   3.532   2.814   2.925  0.6410 -0.2763 -0.2899
  374SOL    HW2 1078   3.411   2.922   2.946 -0.3684 -1.3010 -0.7606
  375SOL     OW 1079   2.804   0.441   0.241  0.4141  0.1068  0.4173
  375SOL    HW1 1080   2.816   0.469   0.146  0.4766  1.1949  0.7284
  375SOL    HW2 1081   2.872   0.372   0.265  1.0167  0.5168 -0.0714
  376SOL     OW 1082   3.222   3.532   3.054 -0.3310  0.4356 -0.2408
  376SOL    HW1 1083   3.201   3.629   3.038  1.1966  0.3651 -3.3697
  376SOL    HW2 1084   3.258   3.491   2.970 -0.7801 -2.8603  1.0182
  377SOL     OW 1085   1.031   3.623   2.086 -0.4095 -0.2730 -0.0422
  377SOL    HW1 1086   1.017   3.599   1.990  0.3865 -1.5337  0.1292
  377SOL    HW2 1087   1.084   3.550   2.131 -1.9231 -0.3609  1.6874
  378SOL     OW 1088   0.311   0.137   1.910  0.3790 -0.1185 -0.1181
  378SOL    HW1 1089   0.310   0.058   1.972 -1.6508  0.2808  0.4605
  378SOL    HW2 1090   0.232   0.133   1.849  0.9197  0.8379 -0.9173
  379SOL     OW 1091   1.409   0.290   3.408 -0.0975  0.2819  0.2433
  379SOL    HW1 1092   1.360   0.378   3.412 -1.8431 -0.6491  0.3960
  379SOL    HW2 1093   1.346   0.216   3.432  1.4417 -0.9957  0.5038
  380SOL     OW 1094   1.007   1.059   1.867  0.1893  0.3870  0.7250
  380SOL    HW1 1095   1.068   1.016   1.934 -0.8782 -1.7515  0.4063
  380SOL    HW2 1096   1.060   1.084   1.786  0.8640 -0.3757  0.9090
  381SOL     OW 1097   3.231   0.460   3.620  0.0579 -0.0008 -0.3745
  381SOL    HW1 1098   3.157   0.521   3.648 -0.6979 -1.2020  0.3021
  381SOL    HW2 1099   3.315   0.487   3.667  0.3189  1.8962 -1.7800
  382SOL     OW 1100   1.734   2.799   3.695 -0.0069  0.0135 -0.1416
  382SOL    HW1 1101   1.822   2.812   3.648  0.5230 -2.1672  0.1654
  382SOL    HW2 1102   1.660   2.825   3.633  0.7519 -0.9367 -1.5044
  383SOL     OW 1103   3.614   3.240   2.463 -0.1700  0.7379  0.3919
  383SOL    HW1 1104   3.584   3.211   2.372 -0.0905  0.9615  0.2945
  383SOL    HW2 1105   3.543   3.218   2.530  0.9092 -2.0826  0.7577
  384SOL     OW 1106   0.281   0.391   2.070  0.3699 -0.1804  0.1199
  384SOL    HW1 1107   0.250   0.474   2.024  0.7910  0.9516  1.7585
  384SOL    HW2 1108   0.289   0.316   2.004  1.6347  1.5130 -1.7691
  385SOL     OW 1109   0.874   3.341   2.298  0.3418  0.0204 -0.2020
  385SOL    HW1 1110   0.945   3.343   2.368 -0.2834  0.1406  0.4500
  385SOL    HW2 1111   0.898   3.275   2.227  1.1338  0.1179 -0.0326
  386SOL     OW 1112   0.497   3.584   0.955  0.0517  0.5266 -0.1604
  386SOL    HW1 1113   0.580   3.569   1.009 -0.7745  0.7695  1.2004
  386SOL    HW2 1114   0.520   3.639   0.874  1.2789  0.2384 -0.0358
  387SOL     OW 1115   1.284   0.980   1.421  0.3158 -0.1763 -0.3007
  387SOL    HW1 1116   1.290   0.997   1.323 -0.2027  0.4364 -0.2312
  387SOL    HW2 1117   1.290   0.881   1.437 -0.4824 -0.3639 -1.0314
  388SOL     OW 1118   0.996   0.529   2.671  0.2175 -0.1102 -0.5188
  388SOL    HW1 1119   0.956   0.437   2.671 -0.1452  0.0264  0.8575
  388SOL    HW2 1120   1.073   0.532   2.736  1.1600  0.1830 -1.6189
  389SOL     OW 1121   3.500   0.504   0.874 -0.2006  0.2812 -0.4621
  389SOL    HW1 1122   3.439   0.545   0.941  0.2310 -0.0882  0.1648
  389SOL    HW2 1123   3.568   0.447   0.920  0.4696  0.4858 -1.1689
  390SOL     OW 1124   0.534   2.372   1.542  0.5745 -0.3781 -0.1357
  390SOL    HW1 1125   0.541   2.471   1.529 -0.5353 -0.0899  1.2292
  390SOL    HW2 1126   0.587   2.325   1.471 -0.2649  1.1368 -1.8309
  391SOL     OW 1127   1.005   1.886   2.092 -0.2693 -0.4198 -0.3103
  391SOL    HW1 1128   0.944   1.939   2.032 -0.9274 -0.4431  0.3247
  391SOL    HW2 1129   1.065   1.829   2.036  1.4322  1.9976 -1.0670
  392SOL     OW 1130   0.368   3.573   3.623 -0.2442 -0.0908  0.7616
  392SOL    HW1 1131   0.446   3.510   3.622 -1.2454 -1.3815  0.1747
  392SOL    HW2 1132   0.309   3.554   3.544 -1.2831  0.6696  1.3281
  393SOL     OW 1133   0.306   1.714   1.390 -0.3271  0.1982  0.4198
  393SOL    HW1 1134   0.215   1.731   1.350 -0.4431 -1.4610 -0.0676
  393SOL    HW2 1135   0.308   1.624   1.432  1.1488  0.1618  0.3203
  394SOL     OW 1136   0.925   3.727   3.536  0.2170 -0.3855 -0.1310
  394SOL    HW1 1137   1.011   3.676   3.540 -0.3158 -1.4221 -1.3435
  394SOL    HW2 1138   0.849   3.663   3.526 -0.7467  0.5035  1.1442
  395SOL     OW 1139   1.186   0.784   3.454 -0.3398 -0.5953 -0.1853
  395SOL    HW1 1140   1.249   0.786   3.531 -0.1919  1.6860 -0.2936
  395SOL    HW2 1141   1.237   0.766   3.369 -0.2427 -1.2891  0.0118
  396SOL     OW 1142   0.277   3.464   2.751  0.0061  0.8730 -0.4404
  396SOL    HW1 1143   0.270   3.381   2.696  0.4275  0.8786 -0.5042
  396SOL    HW2 1144   0.297   3.542   2.691  1.1594  0.7691 -0.2104
  397SOL     OW 1145   2.124   1.631   2.759 -0.0822  0.4026  0.2322
  397SOL    HW1 1146   2.113   1.562   2.687 -0.1641  0.0361  0.5900
  397SOL    HW2 1147   2.222   1.644   2.777 -0.0622 -1.5553  1.9636
  398SOL     OW 1148   0.213   2.385   0.298 -0.4559  0.1439 -0.5445
  398SOL    HW1 1149   0.211   2.477   0.336  1.8682  0.4666 -1.0735
  398SOL    HW2 1150   0.291   2.375   0.237 -1.6152 -1.6906 -1.8386
  399SOL     OW 1151   1.765   3.014   3.433 -0.0869 -0.5637  0.0693
  399SOL    HW1 1152   1.848   2.991   3.484  0.2202 -0.5497 -0.4246
  399SOL    HW2 1153   1.690   2.955   3.464  0.7088 -2.3264 -1.2254
  400SOL     OW 1154   1.434   1.141   0.381  0.4240 -0.1679 -0.2437
  400SOL    HW1 1155   1.515   1.097   0.342  0.1080  0.3751 -1.5605
  400SOL    HW2 1156   1.396   1.206   0.315 -0.5834  0.2318  0.6939
  401SOL     OW 1157   3.396   3.200   1.473 -0.2020  0.1053 -0.2530
  401SOL    HW1 1158   3.474   3.262   1.467  0.0213 -0.2888 -1.9053
  401SOL    HW2 1159   3.386   3.150   1.387 -1.2695 -1.0852  0.5192
  402SOL     OW 1160   2.411   0.747   0.324 -0.8886  0.2035  0.0536
  402SOL    HW1 1161   2.335   0.758   0.260 -1.0702  0.1285  0.2557
  402SOL    HW2 1162   2.479   0.818   0.307 -1.2187  0.5532  0.1745
  403SOL     OW 1163   1.368   1.106   1.933  0.0380 -0.7121 -0.5990
  403SOL    HW1 1164   1.434   1.167   1.977 -1.2217  0.3666 -0.1432
  403SOL    HW2 1165   1.410   1.064   1.853  0.6458  1.5497 -1.5342
  404SOL     OW 1166   0.876   0.052   1.841  0.8471 -0.3030 -0.8046
  404SOL    HW1 1167   0.783   0.088   1.843 -0.0185 -2.3131 -2.1739
  404SOL    HW2 1168   0.941   0.128   1.832 -0.6999  1.0479 -0.9909
  405SOL     OW 1169   2.344   1.893   3.381 -0.2105  0.3634  0.1588
  405SOL    HW1 1170   2.325   1.880   3.478  0.4100 -2.2041  0.0067
  405SOL    HW2 1171   2.271   1.851   3.326 -0.0123  0.8242 -0.4720
  406SOL     OW 1172   1.712   1.264   2.950 -0.8318  0.6053  0.6272
  406SOL    HW1 1173   1.729   1.192   2.883 -3.4258 -1.3770  1.8777
  406SOL    HW2 1174   1.776   1.254   3.026  0.2149  1.0113 -0.1862
  407SOL     OW 1175   0.738   2.733   3.130 -0.5901 -0.2478 -0.6735
  407SOL    HW1 1176   0.827   2.692   3.109 -0.9065 -0.7963 -0.9795
  407SOL    HW2 1177   0.751   2.816   3.183  0.2381  0.9922 -2.7188
  408SOL     OW 1178   1.138   1.613   1.198  0.1121  0.0014 -0.0699
  408SOL    HW1 1179   1.158   1.710   1.215  0.8877 -0.0939 -0.3872
  408SOL    HW2 1180   1.134   1.597   1.100 -1.2439 -0.0605 -0.0254
  409SOL     OW 1181   1.853   2.857   1.878  0.0024 -0.1776 -0.7036
  409SOL    HW1 1182   1.760   2.819   1.870 -0.1769  0.2190 -0.4989
  409SOL    HW2 1183   1.886   2.881   1.786 -0.2936  0.1432 -0.7300
  410SOL     OW 1184   0.721   1.818   2.454  0.3126 -0.0011 -0.1574
  410SOL    HW1 1185   0.802   1.806   2.397  2.5768  1.3440  2.5122
  410SOL    HW2 1186   0.661   1.739   2.445  1.1939 -0.4461 -3.2340
  411SOL     OW 1187   3.275   1.819   2.480 -0.5879  0.5769 -0.7061
  411SOL    HW1 1188   3.186   1.776   2.495 -0.0414  0.0497  1.3614
  411SOL    HW2 1189   3.264   1.900   2.422 -2.4371  0.6232 -0.3468
  412SOL     OW 1190   0.971   0.772   2.247 -0.1250 -0.3797 -0.4410
  412SOL    HW1 1191   0.970   0.870   2.270  0.0892 -0.4766 -0.0038
  412SOL    HW2 1192   0.880   0.743   2.221 -0.9864 -0.7860  2.5780
  413SOL     OW 1193   2.070   0.978   0.139 -0.0243 -0.4484  0.1283
  413SOL    HW1 1194   2.092   1.028   0.055 -0.2823 -1.3992 -0.5202
  413SOL    HW2 1195   2.119   0.891   0.140 -0.1012 -0.4914  0.9190
  414SOL     OW 1196   1.305   2.438   1.607 -0.2616  0.3802  0.6861
  414SOL    HW1 1197   1.303   2.500   1.685  1.2371  1.0193  0.2554
  414SOL    HW2 1198   1.316   2.344   1.639  2.0160  0.7799  1.2626
  415SOL     OW 1199   1.593   2.630   2.769  0.0894  0.9846 -0.5520
  415SOL    HW1 1200   1.499   2.605   2.746 -0.4029  2.9496 -0.8386
  415SOL    HW2 1201   1.650   2.622   2.688  0.2067 -0.2650 -0.3649
  416SOL     OW 1202   0.019   1.404   2.585 -0.1011  0.8348  0.5820
  416SOL    HW1 1203  -0.005   1.464   2.508  1.3852 -1.0970 -1.5293
  416SOL    HW2 1204   0.002   1.309   2.559  1.3796  0.0586  2.2764
  417SOL     OW 1205   0.559   0.955   2.866  0.3135  0.4281 -0.0534
  417SOL    HW1 1206   0.639   1.014   2.877  0.6972  0.1718 -1.3075
  417SOL    HW2 1207   0.585   0.860   2.882  0.1183  0.4024  0.1228
  418SOL     OW 1208   0.848   1.295   1.844 -0.6018 -0.2243 -0.0249
  418SOL    HW1 1209   0.902   1.211   1.851 -1.9199 -1.0281  1.1356
  418SOL    HW2 1210   0.827   1.313   1.748  1.1708 -0.2289 -0.4332
  419SOL     OW 1211   0.908   0.844   3.079 -0.2258  0.5286 -0.2555
  419SOL    HW1 1212   0.821   0.878   3.115 -0.7585  0.4836 -1.4470
  419SOL    HW2 1213   0.948   0.779   3.143 -2.2063 -1.2193 -0.7120
  420SOL     OW 1214   1.206   0.489   3.494  0.4104 -0.1611 -0.1595
  420SOL    HW1 1215   1.188   0.579   3.454 -1.1039  0.5954  2.0283
  420SOL    HW2 1216   1.132   0.426   3.470  0.5399 -0.2902 -0.2188
  421SOL     OW 1217   1.719   1.778   2.348  0.1027  0.0844 -0.0544
  421SOL    HW1 1218   1.799   1.838   2.357  1.9323 -1.9808 -1.4997
  421SOL    HW2 1219   1.665   1.806   2.269 -0.7449  1.5713  1.0020
  422SOL     OW 1220   3.564   0.688   0.384  0.0703 -0.2426  0.7601
  422SOL    HW1 1221   3.621   0.670   0.303  1.7402  2.3058  1.2763
  422SOL    HW2 1222   3.609   0.652   0.465 -0.0291  0.0286  0.9366
  423SOL     OW 1223   1.986   1.593   0.345 -0.8607  0.0394  0.1987
  423SOL    HW1 1224   1.937   1.527   0.288 -2.1510  0.6732  0.5526
  423SOL    HW2 1225   2.025   1.664   0.287  0.1770 -0.7793 -0.1435
  424SOL     OW 1226   1.826   1.171   3.564 -0.1910 -0.7695  0.5205
  424SOL    HW1 1227   1.763   1.182   3.641  0.8081 -0.4584  1.3188
  424SOL    HW2 1228   1.920   1.172   3.598  0.3608  1.0932 -0.8786
  425SOL     OW 1229   0.086   3.372   2.949  0.7614 -0.7620  0.9349
  425SOL    HW1 1230   0.116   3.278   2.970  1.4400 -0.7787 -0.0455
  425SOL    HW2 1231   0.160   3.420   2.902 -0.7324 -0.8187 -1.6155
  426SOL     OW 1232   0.206   0.673   2.723 -0.3255  0.4655  0.0060
  426SOL    HW1 1233   0.253   0.605   2.666  0.9512  1.5853 -0.3309
  426SOL    HW2 1234   0.149   0.626   2.790  0.4772 -0.9487 -0.2497
  427SOL     OW 1235   1.708   0.581   2.897 -0.4537  0.2297 -0.5680
  427SOL    HW1 1236   1.631   0.518   2.899  0.4608 -0.8976  0.3262
  427SOL    HW2 1237   1.777   0.552   2.963  1.7580 -0.1251 -2.8796
  428SOL     OW 1238   2.658   3.238   3.149 -0.1983  0.2975  0.5952
  428SOL    HW1 1239   2.579   3.186   3.115 -0.0817  0.3600  0.2316
  428SOL    HW2 1240   2.733   3.231   3.085 -0.5518  1.8577 -0.0443
  429SOL     OW 1241   0.343   2.868   2.965 -0.3087 -0.5747 -0.4377
  429SOL    HW1 1242   0.258   2.833   2.925 -0.4377 -1.9541  0.9336
  429SOL    HW2 1243   0.362   2.818   3.050  1.7741 -0.1394 -0.6127
  430SOL     OW 1244   3.384   0.721   3.181  0.0153  0.0936  0.6982
  430SOL    HW1 1245   3.370   0.733   3.280  1.5563 -0.2998  0.9977
  430SOL    HW2 1246   3.482   0.706   3.163 -0.4919 -2.2354 -0.6201
  431SOL     OW 1247   2.096   3.227   1.105  0.4238 -0.3390  0.6161
  431SOL    HW1 1248   2.099   3.204   1.203 -0.3001 -0.5346  0.6037
  431SOL    HW2 1249   2.012   3.189   1.065  0.3951  0.2903  0.0611
  432SOL     OW 1250   2.248   1.328   2.397  0.6560  0.0175  0.2874
  432SOL    HW1 1251   2.343   1.334   2.426  0.7204 -1.1156  0.3359
  432SOL    HW2 1252   2.243   1.293   2.304  0.3674  2.1144 -0.5505
  433SOL     OW 1253   0.366   3.234   2.211 -0.5435 -0.7178 -0.4270
  433SOL    HW1 1254   0.287   3.175   2.199  0.0977 -2.0077  1.3705
  433SOL    HW2 1255   0.416   3.241   2.124 -1.6969 -1.2158 -1.1463
  434SOL     OW 1256   0.364   3.437   2.409  0.5680 -0.1040 -0.8224
  434SOL    HW1 1257   0.455   3.430   2.452 -0.1659 -0.2491  0.7791
  434SOL    HW2 1258   0.349   3.358   2.350  0.5063 -1.4453  0.9045
  435SOL     OW 1259   1.005   0.489   0.358 -0.0579 -0.0757  0.9653
  435SOL    HW1 1260   1.050   0.539   0.284 -0.7839  1.1012  1.2820
  435SOL    HW2 1261   0.931   0.433   0.321  0.9595 -1.1867  0.5692
  436SOL     OW 1262   1.165   1.102   1.655 -0.4866  0.0444 -0.4285
  436SOL    HW1 1263   1.219   1.050   1.589  1.2940  0.3990  0.6774
  436SOL    HW2 1264   1.180   1.200   1.640 -0.0763  0.1284  0.4765
  437SOL     OW 1265   1.947   0.094   3.556 -0.2314 -0.3328  0.3678
  437SOL    HW1 1266   2.000   0.027   3.610  0.3107 -0.0729  0.1692
  437SOL    HW2 1267   2.010   0.145   3.497 -0.3179  1.8623  2.0626
  438SOL     OW 1268   1.054   0.957   0.063  0.3695  0.3282  0.1323
  438SOL    HW1 1269   1.028   1.039   0.114  2.0898  0.5522  0.7324
  438SOL    HW2 1270   1.154   0.950   0.060  0.3002 -2.3076  1.0543
  439SOL     OW 1271   0.024   2.093   3.370  0.4012  0.5964  0.3560
  439SOL    HW1 1272  -0.006   2.006   3.409  1.0127 -0.1832 -0.8244
  439SOL    HW2 1273   0.113   2.080   3.325  0.4429  1.8044  0.0613
  440SOL     OW 1274   1.657   0.820   3.000 -0.1298  0.0515 -0.7290
  440SOL    HW1 1275   1.614   0.892   2.945  0.5125 -0.2740 -1.6963
  440SOL    HW2 1276   1.670   0.739   2.943 -1.3159 -1.0339  0.4801
  441SOL     OW 1277   1.268   0.422   2.150 -0.0972 -0.4212  0.7039
  441SOL    HW1 1278   1.235   0.336   2.112  0.0691 -0.4556  0.6390
  441SOL    HW2 1279   1.366   0.415   2.171 -0.3644 -0.7079  1.9768
  442SOL     OW 1280   3.596   1.449   2.820 -0.0970  0.1812 -0.1350
  442SOL    HW1 1281   3.568   1.359   2.851  1.8260 -0.3688  0.1200
  442SOL    HW2 1282   3.642   1.442   2.731  1.2702  0.6878  0.4988
  443SOL     OW 1283   0.962   1.463   3.033 -0.4591 -0.5120 -0.3101
  443SOL    HW1 1284   1.014   1.405   2.970 -0.8624 -0.8691 -0.3140
  443SOL    HW2 1285   0.910   1.406   3.097  0.2587 -0.1610  0.6186
  444SOL     OW 1286   2.111   1.233   2.765 -0.2765 -0.3951  0.3932
  444SOL    HW1 1287   2.107   1.321   2.717  2.4906 -0.7248 -0.6800
  444SOL    HW2 1288   2.149   1.164   2.703 -1.1472 -2.0446  1.6317
  445SOL     OW 1289   0.067   0.955   1.393  0.5111 -0.3482  0.1487
  445SOL    HW1 1290   0.015   0.872   1.373  2.2028 -1.9564  1.9339
  445SOL    HW2 1291   0.162   0.943   1.364  0.9266  0.7390  0.9813
  446SOL     OW 1292   0.243   2.462   3.555 -0.0162 -0.0069  0.1048
  446SOL    HW1 1293   0.332   2.480   3.597  0.4761 -0.7546 -0.5727
  446SOL    HW2 1294   0.255   2.452   3.456 -1.0798  1.2731 -0.1829
  447SOL     OW 1295   0.301   0.141   3.343 -0.5986  0.3426 -0.2652
  447SOL    HW1 1296   0.228   0.085   3.383 -0.0608  0.4826  0.9572
  447SOL    HW2 1297   0.356   0.084   3.281  1.5248 -1.3338  2.8834
  448SOL     OW 1298   3.456   0.229   3.113 -0.2219  0.0300  0.3195
  448SOL    HW1 1299   3.494   0.155   3.057 -0.3955 -0.4766  0.8616
  448SOL    HW2 1300   3.525   0.261   3.177 -0.5545 -0.5980  1.0114
  449SOL     OW 1301   1.306   0.889   3.004  0.2265 -0.2912 -0.3429
  449SOL    HW1 1302   1.228   0.899   2.943 -0.4277 -1.1372  0.3228
  449SOL    HW2 1303   1.390   0.903   2.952 -0.3446  0.3096 -1.1429
  450SOL     OW 1304   0.825   1.697   2.992 -0.2098 -0.4137  0.1536
  450SOL    HW1 1305   0.879   1.619   3.022  3.1032  1.4022 -0.6685
  450SOL    HW2 1306   0.755   1.666   2.927  0.4956 -2.7520  0.4216
  451SOL     OW 1307   3.221   1.168   3.048  0.0075  0.0111 -0.1327
  451SOL    HW1 1308   3.241   1.079   3.006  0.7638 -0.3737  0.9879
  451SOL    HW2 1309   3.287   1.185   3.121 -1.0387  0.8243  0.6501
  452SOL     OW 1310   1.162   1.556   0.941  0.2079  0.4100  0.3850
  452SOL    HW1 1311   1.086   1.561   0.876 -1.9504  0.2924  2.7363
  452SOL    HW2 1312   1.212   1.470   0.928  0.0760  0.5645 -1.3120
  453SOL     OW 1313   1.136   0.801   0.793 -0.1041  0.1001 -0.2155
  453SOL    HW1 1314   1.232   0.781   0.775 -0.0706  0.3563 -0.3292
  453SOL    HW2 1315   1.126   0.897   0.818 -0.4416  0.3048 -1.0985
  454SOL     OW 1316   0.144   3.163   1.659 -0.5353  0.0253 -1.0614
  454SOL    HW1 1317   0.208   3.239   1.652 -0.7253  0.1492 -1.5574
  454SOL    HW2 1318   0.077   3.169   1.584 -1.2372  0.0053 -0.4426
  455SOL     OW 1319   1.391   2.280   3.619  0.2743 -0.2937  0.1318
  455SOL    HW1 1320   1.421   2.204   3.562  0.2181 -1.3388  1.4382
  455SOL    HW2 1321   1.452   2.288   3.699  1.2034  2.0134 -0.7108
  456SOL     OW 1322   3.234   0.706   2.086  0.2990  0.3922  0.7517
  456SOL    HW1 1323   3.273   0.748   2.168  2.6497 -0.0813 -0.0486
  456SOL    HW2 1324   3.290   0.729   2.007 -1.0350 -0.4383 -0.4842
  457SOL     OW 1325   0.265   1.367   2.704  0.0254 -0.7248  0.2953
  457SOL    HW1 1326   0.173   1.346   2.670 -1.0094 -0.4329  2.6719
  457SOL    HW2 1327   0.299   1.450   2.659 -0.3094 -1.5427 -1.5366
  458SOL     OW 1328   0.361   0.133   0.550  0.0997 -0.1453 -0.4091
  458SOL    HW1 1329   0.381   0.120   0.453 -0.4385  0.6432 -0.6357
  458SOL    HW2 1330   0.391   0.224   0.578 -0.2348 -0.1690  0.0302
  459SOL     OW 1331   1.704   3.655   2.741 -0.5498  0.4283 -0.2376
  459SOL    HW1 1332   1.614   3.636   2.780 -0.9878  2.2193 -0.3136
  459SOL    HW2 1333   1.756   3.714   2.803 -0.5510  1.8027 -1.4976
  460SOL     OW 1334   1.782   1.002   1.904 -0.0159  0.2135 -0.4968
  460SOL    HW1 1335   1.875   0.993   1.868 -0.6032  0.2829 -2.1221
  460SOL    HW2 1336   1.785   1.047   1.993  1.5543 -0.4758 -0.1580
  461SOL     OW 1337   3.297   2.809   3.499 -0.4175  0.4016 -0.0491
  461SOL    HW1 1338   3.198   2.808   3.515 -0.4040 -1.3128  0.0163
  461SOL    HW2 1339   3.315   2.819   3.401 -0.5798  3.1005  0.1135
  462SOL     OW 1340   1.046   2.645   1.287  0.2801 -0.1226  0.1984
  462SOL    HW1 1341   0.980   2.609   1.221 -2.1507  0.8264  1.9451
  462SOL    HW2 1342   1.098   2.569   1.326 -0.4901 -1.0444 -0.5069
  463SOL     OW 1343   0.537  -0.003   2.706  0.6539 -0.7161 -0.1058
  463SOL    HW1 1344   0.443  -0.020   2.678  0.2298 -0.4121  1.0683
  463SOL    HW2 1345   0.582   0.057   2.640 -0.0088 -0.7588 -0.6034
  464SOL     OW 1346   1.149   3.679   2.441  0.0987 -0.2236  0.0039
  464SOL    HW1 1347   1.133   3.777   2.428 -1.4674 -0.3592  0.7255
  464SOL    HW2 1348   1.091   3.645   2.515  0.7122 -1.6759 -0.1522
  465SOL     OW 1349   0.386   0.495   2.319 -0.2641 -0.6634 -0.2853
  465SOL    HW1 1350   0.337   0.453   2.243 -0.5800 -1.7712  0.5082
  465SOL    HW2 1351   0.475   0.450   2.329 -0.4150 -0.8377  0.2800
  466SOL     OW 1352   0.589   0.238   2.398  0.2628 -0.1076  0.0949
  466SOL    HW1 1353   0.614   0.303   2.469 -0.3552  0.0881  0.1431
  466SOL    HW2 1354   0.649   0.158   2.402  1.1936  0.5696 -0.1360
  467SOL     OW 1355   0.291   2.071   3.258  0.0509 -0.4776 -0.7215
  467SOL    HW1 1356   0.234   2.058   3.177  0.3781 -0.7550 -0.9084
  467SOL    HW2 1357   0.308   1.983   3.303  0.7331 -0.4690 -0.9456
  468SOL     OW 1358   3.303   1.840   1.641 -0.0149 -0.5629  0.0020
  468SOL    HW1 1359   3.219   1.855   1.589 -0.5066  0.3512  1.0129
  468SOL    HW2 1360   3.363   1.919   1.629 -0.3353 -0.1292  1.1739
  469SOL     OW 1361   0.012   1.820   1.590 -0.0091 -0.5547 -0.1749
  469SOL    HW1 1362  -0.073   1.775   1.620 -0.0278  0.3466  1.2163
  469SOL    HW2 1363   0.089   1.781   1.641 -0.0750  1.2197  1.3829
  470SOL     OW 1364   0.392   3.147   2.608 -0.0954  0.6963  0.3074
  470SOL    HW1 1365   0.399   3.055   2.644  0.2915 -0.5081 -2.5625
  470SOL    HW2 1366   0.296   3.177   2.610 -1.0543 -1.6400 -2.6538
  471SOL     OW 1367   0.216   2.245   1.369 -0.3620 -0.1278  0.0550
  471SOL    HW1 1368   0.165   2.210   1.447  1.7814 -0.4043  1.4049
  471SOL    HW2 1369   0.249   2.338   1.389 -0.7598  0.2576 -0.9996
  472SOL     OW 1370   1.653   0.048   1.282 -1.0107 -0.3278 -0.0329
  472SOL    HW1 1371   1.736   0.041   1.226 -1.3234  0.7529 -0.6526
  472SOL    HW2 1372   1.588  -0.022   1.253 -1.0893  0.0919 -0.9039
  473SOL     OW 1373   2.195   2.356   3.479 -0.0733 -0.1411 -0.0379
  473SOL    HW1 1374   2.284   2.368   3.524 -1.2624  0.1047  2.4047
  473SOL    HW2 1375   2.169   2.441   3.434  0.3698  0.1882  0.3131
  474SOL     OW 1376   0.845   2.561   1.503  0.4180  0.0346  0.2777
  474SOL    HW1 1377   0.823   2.468   1.475  0.2447  0.1973 -0.1464
  474SOL    HW2 1378   0.899   2.605   1.431 -0.7995  0.7630 -0.2178
  475SOL     OW 1379   0.263   2.869   3.412 -0.0459  0.1339 -0.4124
  475SOL    HW1 1380   0.336   2.849   3.476 -0.7848  1.0844  0.7697
  475SOL    HW2 1381   0.186   2.911   3.460 -0.5066  1.1674 -1.9527
  476SOL     OW 1382   1.333   2.256   2.666 -0.3188  0.0146  0.0412
  476SOL    HW1 1383   1.393   2.209   2.730  0.8229 -0.6935 -1.4920
  476SOL    HW2 1384   1.294   2.338   2.710  1.6473  0.4251  1.1153
  477SOL     OW 1385   0.466   2.129   1.305 -0.3719 -0.7665  0.2994
  477SOL    HW1 1386   0.383   2.184   1.318  0.1855 -0.1202  1.3301
  477SOL    HW2 1387   0.483   2.076   1.388 -0.4169 -1.8302 -0.3646
  478SOL     OW 1388   0.594   2.934   0.800 -0.1148  0.0642 -0.1006
  478SOL    HW1 1389   0.667   2.879   0.759  0.5379  2.2831 -2.1342
  478SOL    HW2 1390   0.634   3.016   0.843 -1.2210  0.0308  1.0462
  479SOL     OW 1391   1.453   3.396   0.595 -0.2040  0.0098  0.2868
  479SOL    HW1 1392   1.430   3.362   0.686 -0.4396  0.9648  0.5949
  479SOL    HW2 1393   1.537   3.450   0.600  1.4976 -2.3545 -0.5991
  480SOL     OW 1394   0.070   1.804   1.287  0.6860 -0.2314 -0.0750
  480SOL    HW1 1395   0.103   1.895   1.264  1.9611 -0.6923 -0.1959
  480SOL    HW2 1396   0.041   1.802   1.383  0.9508  0.2302  0.0164
  481SOL     OW 1397   0.627   2.635   1.122 -0.2012  0.5214 -0.6359
  481SOL    HW1 1398   0.615   2.627   1.221 -0.0268  2.0079 -0.4778
  481SOL    HW2 1399   0.539   2.652   1.079 -0.7089 -2.5543 -1.0654
  482SOL     OW 1400   0.572   0.894   2.151  0.2945  0.2776  0.5655
  482SOL    HW1 1401   0.599   0.990   2.142 -2.1900  0.9080 -1.2530
  482SOL    HW2 1402   0.623   0.840   2.084 -0.0442  0.7689 -0.1055
  483SOL     OW 1403   0.737   0.166   3.227  0.6509 -0.1152 -0.0385
  483SOL    HW1 1404   0.703   0.249   3.271  3.1499  0.2436  1.3861
  483SOL    HW2 1405   0.704   0.086   3.278 -1.6213 -0.0838 -1.3192
  484SOL     OW 1406   1.675   3.398   0.116  0.5420 -0.2984 -0.2938
  484SOL    HW1 1407   1.581   3.431   0.119  1.2114  2.1533 -2.0197
  484SOL    HW2 1408   1.704   3.369   0.207 -1.1395  1.2213  0.8021
  485SOL     OW 1409   3.576   3.337   0.263  0.8391 -0.0264 -0.0450
  485SOL    HW1 1410   3.563   3.436   0.268  0.7651 -0.0836  1.2809
  485SOL    HW2 1411   3.517   3.299   0.192 -1.0335  0.5702  1.1370
  486SOL     OW 1412   0.626   0.203   1.877 -0.2551  0.0017  0.0717
  486SOL    HW1 1413   0.544   0.260   1.885  0.8172  1.4828  1.0633
  486SOL    HW2 1414   0.704   0.260   1.849  0.4825 -1.3541 -0.8000
  487SOL     OW 1415   2.732   1.707   3.482 -0.2124 -0.1565  0.5501
  487SOL    HW1 1416   2.812   1.756   3.446  0.1265  0.2604  1.7939
  487SOL    HW2 1417   2.692   1.651   3.410  0.0956  1.0473 -0.6077
  488SOL     OW 1418   0.181   2.880   0.120 -0.2832 -0.2397 -0.0198
  488SOL    HW1 1419   0.095   2.923   0.148 -1.3108 -1.9687 -0.3526
  488SOL    HW2 1420   0.161   2.799   0.066  1.6175  0.6166 -2.1518
  489SOL     OW 1421   1.769   3.645   0.879  0.4587  0.1858 -0.0782
  489SOL    HW1 1422   1.831   3.724   0.877  2.5699 -1.3521  1.0533
  489SOL    HW2 1423   1.813   3.570   0.928 -3.0578 -0.4284  2.4536
  490SOL     OW 1424   3.394   2.180   0.074  0.7542 -0.0202  0.5643
  490SOL    HW1 1425   3.404   2.096   0.021  2.6947  0.8181 -0.4755
  490SOL    HW2 1426   3.467   2.185   0.143 -0.6042 -0.1664  2.0943
  491SOL     OW 1427   1.214   2.021   0.089 -0.6036  0.3166 -0.0911
  491SOL    HW1 1428   1.276   2.073   0.030  0.3101 -1.0685 -0.3852
  491SOL    HW2 1429   1.124   2.017   0.047 -0.4101  0.7912 -0.5621
  492SOL     OW 1430   0.762   3.478   1.066  0.1402  0.2083 -0.0654
  492SOL    HW1 1431   0.836   3.530   1.109  0.0626  0.6293 -0.4315
  492SOL    HW2 1432   0.746   3.394   1.117  1.8755 -0.6171 -0.8198
  493SOL     OW 1433   3.254   2.932   2.978  0.8036 -0.2633 -0.4090
  493SOL    HW1 1434   3.243   2.950   2.880  0.3020 -0.0017 -0.3090
  493SOL    HW2 1435   3.196   2.994   3.030 -0.4183 -1.6620 -0.0212
  494SOL     OW 1436   3.557   1.128   3.658 -0.1571  0.1531  0.2196
  494SOL    HW1 1437   3.584   1.222   3.636  1.4931  0.0111  1.4674
  494SOL    HW2 1438   3.554   1.074   3.574 -1.9364  1.4795 -0.6217
  495SOL     OW 1439   0.584   3.413   0.260 -0.0495  0.1222  0.3885
  495SOL    HW1 1440   0.516   3.425   0.332 -0.8566  1.7332 -0.5880
  495SOL    HW2 1441   0.675   3.430   0.296 -0.0698 -2.2141  1.7562
  496SOL     OW 1442   2.899   1.049   1.285  0.1274 -0.2746 -0.4364
  496SOL    HW1 1443   2.865   1.012   1.199  0.2692  0.6675 -0.9156
  496SOL    HW2 1444   2.998   1.063   1.278 -0.1452  1.7521 -0.9051
  497SOL     OW 1445   0.763   2.001   0.165 -0.3629  0.4890  0.3277
  497SOL    HW1 1446   0.666   2.002   0.187 -0.6330 -2.2132 -0.4551
  497SOL    HW2 1447   0.815   1.965   0.242 -0.2076  0.0901  0.0382
  498SOL     OW 1448   0.412   1.961   1.072  0.2083  0.0382  0.3966
  498SOL    HW1 1449   0.364   2.030   1.018  0.3265  0.0044  0.2468
  498SOL    HW2 1450   0.439   2.000   1.160  0.6712  0.3208  0.1347
  499SOL     OW 1451   0.021   1.239   1.009  1.1786  0.3327 -0.3735
  499SOL    HW1 1452   0.027   1.290   1.094 -0.9057  0.1652 -0.0672
  499SOL    HW2 1453   0.060   1.148   1.021  1.6663  0.6015  0.1263
  500SOL     OW 1454   1.190   2.529   3.306  0.0407  0.3371 -0.5867
  500SOL    HW1 1455   1.165   2.624   3.325  0.6830  0.3479  0.2460
  500SOL    HW2 1456   1.220   2.484   3.391  1.9071  0.0510 -1.3531
  501SOL     OW 1457   0.486   3.242   1.726  0.0209  0.1452 -0.4711
  501SOL    HW1 1458   0.493   3.172   1.656 -1.9992  0.0514 -0.6134
  501SOL    HW2 1459   0.411   3.304   1.704 -1.3575 -0.4985  2.1237
  502SOL     OW 1460   2.066   3.692   2.513 -0.0824  0.2483 -0.5984
  502SOL    HW1 1461   2.012   3.630   2.570 -1.2740 -0.6211 -2.5832
  502SOL    HW2 1462   2.089   3.774   2.566 -1.4837 -0.3271  0.9915
  503SOL     OW 1463   0.634   0.411   3.343 -0.1603  0.0105 -0.1076
  503SOL    HW1 1464   0.656   0.502   3.306  0.3792 -0.6417 -1.4676
  503SOL    HW2 1465   0.613   0.419   3.440  3.6183  1.1148  0.8065
  504SOL     OW 1466   1.114   1.650   2.720  1.1263  0.0989  0.1544
  504SOL    HW1 1467   1.140   1.576   2.782  1.1736  0.2804  0.3540
  504SOL    HW2 1468   1.020   1.638   2.690  1.4724 -0.6411 -0.6833
  505SOL     OW 1469   1.750   0.183   3.163 -0.8694 -0.6427 -0.4403
  505SOL    HW1 1470   1.657   0.175   3.128 -1.5345  3.3037  0.0360
  505SOL    HW2 1471   1.749   0.220   3.256  1.1996 -0.1868 -0.5361
  506SOL     OW 1472   3.410   3.229   1.179 -0.1827 -0.3831 -0.1300
  506SOL    HW1 1473   3.410   3.235   1.079 -2.4363  1.5281 -0.1298
  506SOL    HW2 1474   3.323   3.191   1.210  0.3281 -0.5748  1.1312
  507SOL     OW 1475   1.434   1.687   1.674  0.0703 -0.0430  0.2042
  507SOL    HW1 1476   1.383   1.602   1.683  0.6862 -0.4086  0.2671
  507SOL    HW2 1477   1.530   1.672   1.698  0.1161  0.7447  0.5648
  508SOL     OW 1478   0.368   2.317   0.783  0.0010 -0.4186 -0.0146
  508SOL    HW1 1479   0.468   2.313   0.783  0.0148 -0.6616 -1.1778
  508SOL    HW2 1480   0.338   2.407   0.749 -0.0838 -1.7459 -4.0743
  509SOL     OW 1481   1.204   1.468   0.378 -0.2718 -0.3055 -0.2735
  509SOL    HW1 1482   1.262   1.410   0.322  1.0441  2.3548 -1.8830
  509SOL    HW2 1483   1.155   1.533   0.320  0.2342  1.7943  1.5081
  510SOL     OW 1484   0.991   1.571   1.610 -0.0426  0.3093  0.1996
  510SOL    HW1 1485   1.044   1.655   1.595 -0.1569  0.4513  0.5879
  510SOL    HW2 1486   0.898   1.595   1.638 -0.0750  0.0514  0.3160
  511SOL     OW 1487   0.639   1.327   3.614  0.0881  0.9716 -0.2620
  511SOL    HW1 1488   0.623   1.336   3.516  1.1936  1.2812 -0.4309
  511SOL    HW2 1489   0.690   1.406   3.647  0.7561  0.3186  0.3264
  512SOL     OW 1490   2.200   2.878   1.356 -0.0624  0.3889  0.0645
  512SOL    HW1 1491   2.285   2.852   1.402 -0.5309  1.0380  1.3532
  512SOL    HW2 1492   2.175   2.971   1.382 -0.9720  0.3478 -0.6033
  513SOL     OW 1493   0.923   0.789   0.435  0.2196 -0.0139  0.1865
  513SOL    HW1 1494   0.940   0.757   0.342 -0.1656  1.2808 -0.3549
  513SOL    HW2 1495   0.851   0.734   0.477 -0.1673 -0.0966 -0.5691
  514SOL     OW 1496   0.271   3.125   0.196  0.2557 -0.4388  0.2014
  514SOL    HW1 1497   0.231   3.043   0.154  1.9169 -1.7861  1.1399
  514SOL    HW2 1498   0.279   3.112   0.294  1.5420  0.3960  0.2347
  515SOL     OW 1499   0.919   2.001   1.197  0.1785 -0.3809  0.0619
  515SOL    HW1 1500   0.925   2.016   1.098  2.5200  0.0850  0.2065
  515SOL    HW2 1501   0.856   1.926   1.216 -1.0308  0.1296 -1.7000
  516SOL     OW 1502   2.277   3.602   3.059  0.0980  0.5687 -0.2872
  516SOL    HW1 1503   2.227   3.645   2.984  1.1018  1.1501 -0.6380
  516SOL    HW2 1504   2.220   3.602   3.141 -0.8338  0.3528 -0.9194
  517SOL     OW 1505   3.189   0.404   0.772 -0.1024 -0.2211 -0.8584
  517SOL    HW1 1506   3.232   0.404   0.862  1.6641  1.2222 -1.6218
  517SOL    HW2 1507   3.102   0.356   0.776  0.4921 -1.2433  1.3214
  518SOL     OW 1508   0.527   3.667   1.796  0.5451 -0.4202  0.2263
  518SOL    HW1 1509   0.557   3.761   1.813 -1.0167  0.0627  0.4803
  518SOL    HW2 1510   0.455   3.643   1.861 -0.4314 -1.1007 -1.0661
  519SOL     OW 1511   0.037   2.694   0.766  0.0464  0.8358 -0.1948
  519SOL    HW1 1512  -0.029   2.665   0.696  0.7524  0.1411 -0.5983
  519SOL    HW2 1513   0.019   2.645   0.851  0.9330 -0.4785 -0.7340
  520SOL     OW 1514   1.706   3.489   0.663  0.1422  0.3239 -0.0795
  520SOL    HW1 1515   1.759   3.526   0.587  0.3547 -0.8555 -0.5289
  520SOL    HW2 1516   1.729   3.538   0.747  0.3000  1.2896 -0.6726
  521SOL     OW 1517   3.202   0.717   1.180 -0.0749  0.3392  0.2411
  521SOL    HW1 1518   3.145   0.684   1.104 -0.5380 -0.9109  1.0902
  521SOL    HW2 1519   3.296   0.687   1.165 -0.0331  0.6595 -0.1583
  522SOL     OW 1520   0.697   0.877   0.220  0.2025 -0.3959  0.4361
  522SOL    HW1 1521   0.793   0.849   0.223  0.6988  1.0636 -0.4777
  522SOL    HW2 1522   0.638   0.799   0.239  1.5392 -1.6557 -0.4017
  523SOL     OW 1523   0.456   3.686   3.152 -0.1408  0.6935  0.1853
  523SOL    HW1 1524   0.452   3.614   3.082  0.1002  1.5971 -0.7740
  523SOL    HW2 1525   0.514   3.761   3.120  0.2346  0.9909  1.4943
  524SOL     OW 1526   3.429   2.070   1.567 -0.1842 -0.1574  0.3581
  524SOL    HW1 1527   3.462   2.141   1.628  0.0224 -0.2618  0.3695
  524SOL    HW2 1528   3.488   2.066   1.486 -0.6907  0.2502 -0.0362
  525SOL     OW 1529   0.609   3.590   0.485 -0.4697  0.1148  0.0215
  525SOL    HW1 1530   0.609   3.661   0.415  1.7919 -0.2823 -0.4900
  525SOL    HW2 1531   0.524   3.538   0.481 -0.9003  0.8875 -1.5990
  526SOL     OW 1532   1.130   1.711   1.905  0.7040 -0.1938 -0.1084
  526SOL    HW1 1533   1.132   1.749   1.813  0.2867 -0.0972 -0.0758
  526SOL    HW2 1534   1.064   1.636   1.910  1.3342 -0.7718 -0.1054
  527SOL     OW 1535   0.599   1.661   1.545 -0.2153 -0.7460 -0.1977
  527SOL    HW1 1536   0.553   1.745   1.517 -1.0085 -0.9641  0.3934
  527SOL    HW2 1537   0.664   1.633   1.475  1.6037  1.4608  0.4653
  528SOL     OW 1538   0.570   2.909   1.298 -0.2145  0.2490  0.4757
  528SOL    HW1 1539   0.577   2.813   1.322  0.7505  0.0735 -0.4368
  528SOL    HW2 1540   0.520   2.918   1.211  0.6079  0.4723  0.0149
  529SOL     OW 1541   1.857   0.215   0.747  0.3125 -0.5311 -0.0846
  529SOL    HW1 1542   1.915   0.279   0.697  0.9352 -0.0782  1.1498
  529SOL    HW2 1543   1.864   0.234   0.845 -1.4944 -0.8526  0.1417
  530SOL     OW 1544   0.480   1.814   3.306  0.2246  0.1302 -0.2323
  530SOL    HW1 1545   0.475   1.859   3.217  0.7559 -0.2915 -0.4851
  530SOL    HW2 1546   0.428   1.729   3.304  3.4173 -1.9946 -1.4765
  531SOL     OW 1547   0.008   0.451   1.553  0.4213  0.1339  0.7664
  531SOL    HW1 1548   0.088   0.408   1.594  0.8702  0.8278  0.6393
  531SOL    HW2 1549  -0.075   0.406   1.586  0.7331  1.0036  2.8869
  532SOL     OW 1550   0.729   1.799   0.418  0.0697  0.1752  0.2587
  532SOL    HW1 1551   0.734   1.735   0.494  0.7376 -0.1363 -0.0399
  532SOL    HW2 1552   0.633   1.812   0.391 -0.0006 -2.1389 -0.8656
  533SOL     OW 1553   2.629   1.378   0.114  0.1585  0.1876  0.1371
  533SOL    HW1 1554   2.726   1.356   0.125 -0.1886 -1.5153  0.0973
  533SOL    HW2 1555   2.616   1.476   0.126  1.8269  0.4047  0.5052
  534SOL     OW 1556   2.844   3.279   0.100 -0.0361 -0.1495 -0.1789
  534SOL    HW1 1557   2.791   3.252   0.180 -1.8427  0.0315 -1.2775
  534SOL    HW2 1558   2.933   3.232   0.102 -0.2810 -0.6108  1.5880
  535SOL     OW 1559   1.096   3.399   3.688 -0.0202  0.0918  0.1104
  535SOL    HW1 1560   1.145   3.353   3.761  0.6439  0.2222 -0.2401
  535SOL    HW2 1561   1.059   3.331   3.624  1.6056  0.0355 -0.8186
  536SOL     OW 1562   0.943   2.224   0.810  0.4470  0.0220 -0.1097
  536SOL    HW1 1563   0.979   2.214   0.718 -0.4518  0.6251 -0.5395
  536SOL    HW2 1564   0.990   2.298   0.858 -1.0845  1.7425 -1.1434
  537SOL     OW 1565   0.684   2.916   2.741  0.3021 -0.8589 -0.2397
  537SOL    HW1 1566   0.586   2.913   2.724  0.3890  0.2158 -1.0711
  537SOL    HW2 1567   0.708   3.007   2.777  1.4597  0.2947 -3.5179
  538SOL     OW 1568   1.331   1.785   0.161 -0.2162 -0.1955  0.1654
  538SOL    HW1 1569   1.302   1.872   0.122  2.1408  0.3018 -0.6566
  538SOL    HW2 1570   1.349   1.797   0.259 -1.0628 -0.0860  0.3144
  539SOL     OW 1571   0.969   3.111   3.081  0.4955  0.0413 -0.3434
  539SOL    HW1 1572   1.009   3.134   2.991  0.8778  1.5418  0.1688
  539SOL    HW2 1573   0.976   3.191   3.141 -0.3034 -0.7519  0.8397
  540SOL     OW 1574   0.664   2.285   1.155 -0.0400  0.4885  0.0144
  540SOL    HW1 1575   0.656   2.277   1.055  0.3532  0.1323  0.0068
  540SOL    HW2 1576   0.589   2.235   1.198 -0.3712  0.8765 -0.1037
  541SOL     OW 1577   0.767   1.113   1.474  0.5476  0.0089  0.3031
  541SOL    HW1 1578   0.848   1.053   1.473  0.5886  0.0598 -0.8945
  541SOL    HW2 1579   0.722   1.108   1.385 -0.1835  0.7834  0.6272
  542SOL     OW 1580   1.144   1.749   2.449  0.1330  0.2944  0.5725
  542SOL    HW1 1581   1.195   1.686   2.391  0.1666  0.2930  0.6042
  542SOL    HW2 1582   1.150   1.721   2.545 -0.5207 -0.1158  0.4990
  543SOL     OW 1583   0.354   0.389   3.439 -0.0738 -0.0984  0.4441
  543SOL    HW1 1584   0.319   0.455   3.372 -0.1432 -0.2603  0.3228
  543SOL    HW2 1585   0.327   0.297   3.413 -0.1482 -0.1567  0.7246
  544SOL     OW 1586   1.537   1.995   0.507 -0.3226  0.6887 -0.2531
  544SOL    HW1 1587   1.594   2.040   0.439 -0.1431  0.2056 -0.4301
  544SOL    HW2 1588   1.483   2.063   0.557  1.5482  1.3053  0.9953
  545SOL     OW 1589   1.594   0.433   0.626 -0.2039 -0.4021  0.2253
  545SOL    HW1 1590   1.652   0.496   0.678 -1.2156 -0.0068  0.8885
  545SOL    HW2 1591   1.591   0.344   0.673 -1.8320  0.2171  1.3787
  546SOL     OW 1592   0.453   1.908   1.494 -1.0463  0.4949 -0.2529
  546SOL    HW1 1593   0.398   1.843   1.442 -1.3517  0.9883 -0.5563
  546SOL    HW2 1594   0.405   1.934   1.578 -1.1506  0.7071 -0.3773
  547SOL     OW 1595   0.551   1.226   1.688 -0.2707 -0.1991 -0.3388
  547SOL    HW1 1596   0.619   1.195   1.621  1.0776 -1.3995  1.5085
  547SOL    HW2 1597   0.486   1.152   1.706 -1.0875  0.3748 -0.8207
  548SOL     OW 1598   3.597   1.542   0.170  0.3440 -0.2540  0.2129
  548SOL    HW1 1599   3.683   1.492   0.180  1.8545  2.1075 -0.0119
  548SOL    HW2 1600   3.596   1.619   0.234 -1.9534 -0.6079  0.6882
  549SOL     OW 1601   0.016   2.453   0.918  0.5944  0.2800  0.2025
  549SOL    HW1 1602   0.066   2.382   0.867  2.0238 -0.5355  2.5921
  549SOL    HW2 1603  -0.071   2.415   0.950  1.0961 -0.2336  0.9847
  550SOL     OW 1604   1.191   2.700   0.911  0.5004 -0.3719 -0.5158
  550SOL    HW1 1605   1.201   2.756   0.829  1.3201  0.0143 -0.1678
  550SOL    HW2 1606   1.272   2.711   0.968 -0.6200  0.4616  1.0083
  551SOL     OW 1607   0.862   0.198   0.491  0.1000  0.1752 -0.3470
  551SOL    HW1 1608   0.860   0.256   0.572  1.0678  1.1154 -0.9747
  551SOL    HW2 1609   0.953   0.156   0.483  0.1730  0.4774 -1.2015
  552SOL     OW 1610   0.989   1.836   0.312 -0.4752 -0.4501  0.2028
  552SOL    HW1 1611   1.041   1.868   0.391 -0.6445  1.3881 -0.3919
  552SOL    HW2 1612   0.895   1.818   0.339 -0.5436  0.2163  0.4265
  553SOL     OW 1613   2.816   2.506   0.661  0.1833  0.9700 -0.5205
  553SOL    HW1 1614   2.758   2.497   0.580  0.4943 -1.0703 -0.5558
  553SOL    HW2 1615   2.759   2.506   0.743  0.0572 -0.7823 -0.5684
  554SOL     OW 1616  -0.009   3.657   0.361 -0.0620 -0.2499 -0.1612
  554SOL    HW1 1617   0.011   3.670   0.458  0.4700 -1.0661 -0.1480
  554SOL    HW2 1618   0.077   3.653   0.310 -0.3284 -0.1191 -0.6263
  555SOL     OW 1619   1.943   0.184   1.426 -0.1811  0.2030 -0.2417
  555SOL    HW1 1620   1.902   0.273   1.405  0.8841  0.7072 -0.2778
  555SOL    HW2 1621   1.899   0.145   1.506 -0.6835  0.7422 -0.2420
  556SOL     OW 1622   1.716   3.057   0.847 -0.1421 -0.0632  0.0919
  556SOL    HW1 1623   1.619   3.035   0.856 -0.2922  0.7960  0.7695
  556SOL    HW2 1624   1.728   3.127   0.776  0.1523 -1.1884 -0.9854
  557SOL     OW 1625   1.494   0.683   3.654 -0.1830  0.3277 -0.0055
  557SOL    HW1 1626   1.549   0.629   3.718  0.9298  0.1086 -1.1063
  557SOL    HW2 1627   1.509   0.780   3.671 -2.3130  0.3966  2.0884
  558SOL     OW 1628   2.310   3.308   1.668  0.7976 -0.1661 -0.1649
  558SOL    HW1 1629   2.248   3.361   1.726 -4.2655 -3.8057 -1.5516
  558SOL    HW2 1630   2.341   3.364   1.591 -1.7149  1.6130  0.0173
  559SOL     OW 1631   0.855   0.025   0.744 -0.8216  0.3981 -0.1100
  559SOL    HW1 1632   0.820  -0.022   0.825 -0.8007 -1.7198 -1.2676
  559SOL    HW2 1633   0.794   0.100   0.720 -0.5582  1.4239  2.1241
  560SOL     OW 1634   0.150   2.550   1.143  0.4601  0.2135 -0.2222
  560SOL    HW1 1635   0.185   2.473   1.195 -2.1253 -0.2750  0.9843
  560SOL    HW2 1636   0.097   2.515   1.065  1.2164  0.8583 -1.0412
  561SOL     OW 1637   0.413   2.799   1.614  0.3759  0.3552  0.1875
  561SOL    HW1 1638   0.349   2.867   1.578  0.5089  0.0944 -0.5588
  561SOL    HW2 1639   0.369   2.747   1.688 -1.7060 -2.3518 -2.6913
  562SOL     OW 1640   1.491   2.935   0.754 -0.0481  0.0403 -0.7342
  562SOL    HW1 1641   1.530   2.994   0.683 -1.1241  1.2694 -0.3406
  562SOL    HW2 1642   1.408   2.976   0.789 -0.1284 -1.1024  0.4829
  563SOL     OW 1643   3.541   2.118   1.295 -0.8826 -0.0818  0.1239
  563SOL    HW1 1644   3.476   2.058   1.249 -0.1784 -1.1953  0.5242
  563SOL    HW2 1645   3.635   2.089   1.273 -0.5310  0.7951  0.4240
  564SOL     OW 1646   1.321   3.486   2.718 -0.3499 -0.3201  0.1500
  564SOL    HW1 1647   1.226   3.510   2.736 -0.0028  1.0071  0.2932
  564SOL    HW2 1648   1.380   3.531   2.785  0.3584 -1.5234  0.3676
  565SOL     OW 1649   2.958   2.902   0.036  0.6014 -0.1834 -0.4740
  565SOL    HW1 1650   3.038   2.911   0.095 -0.1542  1.3444  0.3905
  565SOL    HW2 1651   2.981   2.845  -0.044  1.3381 -3.3882  1.8050
  566SOL     OW 1652   1.055   3.216   2.855 -0.4535  0.0142 -0.0081
  566SOL    HW1 1653   1.138   3.263   2.885  0.0512  0.6346 -2.1594
  566SOL    HW2 1654   1.073   3.171   2.767 -2.6316  0.8569 -0.9491
  567SOL     OW 1655   0.324   2.964   0.690 -0.0345 -0.3889 -0.3011
  567SOL    HW1 1656   0.420   2.965   0.716  0.0123  0.1303 -0.4916
  567SOL    HW2 1657   0.269   3.001   0.765  0.0404  0.5186 -0.6875
  568SOL     OW 1658   0.427   0.300   0.277 -0.3313  0.3997 -0.1576
  568SOL    HW1 1659   0.421   0.331   0.372  0.0073 -0.4299  0.1434
  568SOL    HW2 1660   0.341   0.319   0.230 -0.5707  0.6374  0.3695
  569SOL     OW 1661   2.804   1.714   2.210  0.1164 -0.8960 -0.0775
  569SOL    HW1 1662   2.787   1.641   2.277  0.2870  0.8725  2.0087
  569SOL    HW2 1663   2.892   1.756   2.229 -1.1821  1.6838  0.6334
  570SOL     OW 1664   1.722   1.364   0.301  0.0147 -0.2721 -0.5796
  570SOL    HW1 1665   1.660   1.435   0.268  0.7105  0.9761  0.7012
  570SOL    HW2 1666   1.752   1.386   0.393  0.4706 -2.1192 -0.2550
  571SOL     OW 1667   2.637   1.855   1.437 -0.4825  0.0038 -0.2936
  571SOL    HW1 1668   2.596   1.900   1.516 -0.6023  0.6661 -0.7214
  571SOL    HW2 1669   2.666   1.763   1.462 -1.0172  0.0072  0.3714
  572SOL     OW 1670   1.765   2.788   0.809 -0.2357  0.7816  0.4392
  572SOL    HW1 1671   1.838   2.855   0.802 -1.0852  1.7196  0.3613
  572SOL    HW2 1672   1.691   2.825   0.865 -0.7792 -0.0341  0.2786
  573SOL     OW 1673   0.165   2.672   0.391 -0.2388 -0.1849 -0.1243
  573SOL    HW1 1674   0.249   2.683   0.445 -0.0686  0.9738 -0.5754
  573SOL    HW2 1675   0.152   2.754   0.334  0.2260 -1.7955 -2.7133
  574SOL     OW 1676   0.064   0.729   1.124  0.5674  0.4313 -0.3831
  574SOL    HW1 1677   0.112   0.673   1.192 -2.7975 -2.5134 -0.1454
  574SOL    HW2 1678  -0.007   0.782   1.169  0.6589  1.2781 -1.2116
  575SOL     OW 1679   0.689   2.483   3.487 -0.2517 -0.5435 -1.1421
  575SOL    HW1 1680   0.780   2.518   3.511 -0.4984 -0.7043  0.0958
  575SOL    HW2 1681   0.689   2.383   3.492 -0.8440 -0.4908  0.2307
  576SOL     OW 1682   0.723   0.944   2.485  0.1064 -0.0354 -0.5003
  576SOL    HW1 1683   0.666   1.021   2.456  0.0820  1.1177  2.2662
  576SOL    HW2 1684   0.811   0.949   2.438 -0.6902  0.3365 -2.0282
  577SOL     OW 1685   0.579   1.124   3.251 -0.4514  0.0936  0.2982
  577SOL    HW1 1686   0.567   1.025   3.247  0.2561 -0.1664  2.9686
  577SOL    HW2 1687   0.558   1.164   3.161  0.8617 -2.6021 -1.3124
  578SOL     OW 1688   1.126   2.415   0.919  0.1722  0.0752  0.1439
  578SOL    HW1 1689   1.148   2.511   0.902  0.5582  0.3108  1.8459
  578SOL    HW2 1690   1.062   2.408   0.995  0.4166 -1.0356  0.2654
  579SOL     OW 1691   0.838   0.219   3.712  0.6023  0.1167 -0.1702
  579SOL    HW1 1692   0.870   0.148   3.649 -0.3768 -1.0421  0.5990
  579SOL    HW2 1693   0.740   0.232   3.701  0.6446  0.8390  0.2224
  580SOL     OW 1694   0.776   3.238   0.464 -0.6590 -0.8198 -0.3914
  580SOL    HW1 1695   0.797   3.245   0.367 -0.7876 -0.6884 -0.4107
  580SOL    HW2 1696   0.822   3.311   0.514  0.4910 -1.6833 -0.1682
  581SOL     OW 1697   2.871   1.426   1.366 -0.4282 -0.1430 -0.3343
  581SOL    HW1 1698   2.944   1.361   1.383  0.3455  0.2666 -1.8520
  581SOL    HW2 1699   2.910   1.512   1.332 -1.4594  0.9540  1.1268
  582SOL     OW 1700   3.658   3.018   1.058 -0.6757  0.3661  0.3621
  582SOL    HW1 1701   3.603   3.070   1.124 -0.3263  0.7394  0.3610
  582SOL    HW2 1702   3.677   2.927   1.096  1.0613  1.1958  1.5868
  583SOL     OW 1703   3.638   2.965   0.205 -0.3278 -0.0652 -0.0803
  583SOL    HW1 1704   3.560   2.973   0.142 -1.6493  0.0683  1.5207
  583SOL    HW2 1705   3.613   3.003   0.294  1.3998 -0.5326  0.6358
  584SOL     OW 1706   1.000   2.945   1.597 -0.2139 -0.2989 -0.2533
  584SOL    HW1 1707   0.902   2.947   1.579 -0.0258  1.4931 -1.3224
  584SOL    HW2 1708   1.016   2.971   1.693 -0.7247  1.3417 -0.5751
  585SOL     OW 1709   0.912   2.185   3.330  0.4128 -0.5977  0.1585
  585SOL    HW1 1710   0.907   2.225   3.422 -0.9464  1.6259 -0.8034
  585SOL    HW2 1711   0.840   2.116   3.320 -0.0081 -0.2167  0.5015
  586SOL     OW 1712   2.814   2.738   0.895  0.0409 -0.0395 -0.1112
  586SOL    HW1 1713   2.745   2.667   0.887  0.6080 -0.5002 -1.2274
  586SOL    HW2 1714   2.804   2.785   0.983 -1.2319 -0.5465  0.0378
  587SOL     OW 1715   3.059   3.087   0.575 -0.4369  0.7023  0.5344
  587SOL    HW1 1716   3.156   3.103   0.556 -0.5079  0.6629  0.1169
  587SOL    HW2 1717   3.049   3.044   0.664  0.0078 -0.2127  0.1560
  588SOL     OW 1718   3.542   0.940   0.853  0.3398  0.1968 -0.2287
  588SOL    HW1 1719   3.588   0.861   0.813 -0.3159 -1.3196  1.8445
  588SOL    HW2 1720   3.458   0.959   0.801  1.1643  0.4052 -1.5294
  589SOL     OW 1721   2.668   3.038   2.381  0.5188  0.3779  0.4267
  589SOL    HW1 1722   2.619   3.123   2.402  1.4362  0.8089  0.8999
  589SOL    HW2 1723   2.663   2.977   2.460  0.9090  0.5095  0.5566
  590SOL     OW 1724   1.544   1.597   2.462 -0.2645  0.5542  0.3733
  590SOL    HW1 1725   1.610   1.649   2.408  0.9606 -2.2840 -1.0830
  590SOL    HW2 1726   1.456   1.594   2.413  0.7671 -1.7904 -1.5252
  591SOL     OW 1727   2.312   1.202   3.470  0.5283  0.8545 -0.4125
  591SOL    HW1 1728   2.347   1.296   3.464  1.3301  0.6698  0.8305
  591SOL    HW2 1729   2.266   1.178   3.385  2.4107  1.5473 -1.7067
  592SOL     OW 1730   2.360   2.026   0.598 -0.0420  0.2038 -0.4291
  592SOL    HW1 1731   2.355   2.122   0.624 -0.4513 -0.3670  1.7351
  592SOL    HW2 1732   2.456   2.000   0.583  0.3363  0.3733  1.4415
  593SOL     OW 1733   0.571   2.659   1.419 -0.5937  0.5175  0.1161
  593SOL    HW1 1734   0.500   2.702   1.474 -0.9049 -0.6688  0.6647
  593SOL    HW2 1735   0.658   2.661   1.468  0.0969  2.9959 -1.0151
  594SOL     OW 1736   1.213   1.358   1.275 -0.3560 -0.3341  0.2718
  594SOL    HW1 1737   1.310   1.337   1.282 -0.3951 -0.6810 -0.1518
  594SOL    HW2 1738   1.201   1.451   1.241 -0.1363 -1.1558 -2.2458
  595SOL     OW 1739   0.044   3.185   1.400  0.3437  0.1358 -0.2810
  595SOL    HW1 1740  -0.016   3.261   1.375 -0.2178  0.4531  1.8683
  595SOL    HW2 1741   0.002   3.099   1.372 -0.0611  0.4828 -0.7558
  596SOL     OW 1742   3.621   3.380   1.249  0.1891  0.0704  0.3084
  596SOL    HW1 1743   3.593   3.475   1.262  1.0430  0.5126 -0.8844
  596SOL    HW2 1744   3.542   3.325   1.221  0.2021  1.0326 -1.7951
  597SOL     OW 1745   0.622   1.902   0.916  0.1640 -0.1964 -0.0915
  597SOL    HW1 1746   0.545   1.923   0.976  0.8938 -0.6514  1.0618
  597SOL    HW2 1747   0.610   1.946   0.827 -0.6929  0.9603  0.5777
  598SOL     OW 1748   0.593   3.258   3.444  0.0307 -0.1385  0.1720
  598SOL    HW1 1749   0.598   3.343   3.391  0.8044  0.5638  1.3381
  598SOL    HW2 1750   0.497   3.236   3.462 -0.1592  1.3403  1.1575
  599SOL     OW 1751   2.770   3.121   0.983 -0.2821 -0.0534 -0.1580
  599SOL    HW1 1752   2.814   3.210   0.989 -0.5187  0.1739 -1.6149
  599SOL    HW2 1753   2.681   3.124   1.030 -0.6563  0.7139 -0.9051
  600SOL     OW 1754   3.695   1.539   3.270 -0.6349  0.2787 -0.0802
  600SOL    HW1 1755   3.763   1.509   3.336 -0.1104  1.9457  0.1794
  600SOL    HW2 1756   3.605   1.542   3.313 -0.6515 -0.5878 -0.0362
  601SOL     OW 1757   3.425   1.486   1.172  0.3829 -0.1285  0.0029
  601SOL    HW1 1758   3.340   1.505   1.220  0.3487  0.4689 -0.2931
  601SOL    HW2 1759   3.475   1.571   1.157  0.5966 -0.3633 -0.6437
  602SOL     OW 1760   0.441   3.092   1.467 -0.0590  0.5152  0.6784
  602SOL    HW1 1761   0.384   3.155   1.414  0.2864  0.5196  0.3105
  602SOL    HW2 1762   0.460   3.011   1.412 -4.1804 -2.0819  2.5593
  603SOL     OW 1763   0.683   2.683   2.561  0.4534 -0.1872 -0.4967
  603SOL    HW1 1764   0.738   2.628   2.624 -0.7156 -0.0019  0.7383
  603SOL    HW2 1765   0.648   2.763   2.610  0.1266  0.3683 -1.6068
  604SOL     OW 1766   0.316   2.728   3.200  0.4456  0.6372 -0.2224
  604SOL    HW1 1767   0.394   2.669   3.222  1.1104  1.6958  0.3361
  604SOL    HW2 1768   0.298   2.789   3.276  1.1252  2.6032 -1.5582
  605SOL     OW 1769   2.581   2.203   3.553 -0.6368 -0.1047 -0.0857
  605SOL    HW1 1770   2.657   2.252   3.596 -1.0141  0.6264 -0.2259
  605SOL    HW2 1771   2.588   2.106   3.572  0.3948 -0.0541 -0.1871
  606SOL     OW 1772   0.409   1.795   0.524  0.2250 -0.6340 -0.2765
  606SOL    HW1 1773   0.388   1.723   0.457 -0.6399 -0.2974 -0.3710
  606SOL    HW2 1774   0.440   1.753   0.609 -2.0045 -1.2422  0.3088
  607SOL     OW 1775   1.757   2.662   2.268 -0.1341 -0.5085  0.3614
  607SOL    HW1 1776   1.669   2.701   2.242  0.6265  1.4914  0.5995
  607SOL    HW2 1777   1.799   2.619   2.188 -0.5984  0.0210 -0.1806
  608SOL     OW 1778   1.114   1.632   0.179 -0.1139  0.0879  0.4780
  608SOL    HW1 1779   1.049   1.693   0.225  0.0867 -0.4653  1.5174
  608SOL    HW2 1780   1.195   1.684   0.152 -0.3567  0.4776  0.4974
  609SOL     OW 1781   1.334   0.561   0.643  0.0601  0.0568  0.4166
  609SOL    HW1 1782   1.255   0.499   0.634  0.0530  0.2476 -1.0508
  609SOL    HW2 1783   1.418   0.507   0.646 -0.0563 -0.1022  1.1312
  610SOL     OW 1784   0.579   0.633   0.164  0.4337  0.3337  0.1866
  610SOL    HW1 1785   0.554   0.571   0.089 -1.6482 -0.1697  1.2224
  610SOL    HW2 1786   0.623   0.581   0.237  1.6193  0.6733 -0.2526
  611SOL     OW 1787   0.074   0.526   0.575 -0.5471 -0.1188 -0.1983
  611SOL    HW1 1788   0.038   0.438   0.542  0.2477  0.3117 -2.3728
  611SOL    HW2 1789   0.155   0.551   0.523  0.8903  0.6489  2.2081
  612SOL     OW 1790   0.142   3.583   3.175  0.1856 -0.4815  0.3914
  612SOL    HW1 1791   0.092   3.665   3.202 -1.1072 -1.8223  2.2311
  612SOL    HW2 1792   0.083   3.524   3.119  0.1762 -1.3827  1.3254
  613SOL     OW 1793   0.254   2.131   0.941 -0.0002  0.5421  0.4036
  613SOL    HW1 1794   0.301   2.199   0.885 -0.2018 -0.0714 -0.5405
  613SOL    HW2 1795   0.155   2.143   0.933 -0.0422  0.0768  0.1228
  614SOL     OW 1796   0.520   0.037   0.287  0.5087 -0.0055 -0.6799
  614SOL    HW1 1797   0.508   0.135   0.271  0.0450 -0.0307 -0.4766
  614SOL    HW2 1798   0.446  -0.014   0.244 -0.4049 -0.1223  0.9349
  615SOL     OW 1799   1.233   3.012   3.462  0.0565  0.1542  0.4419
  615SOL    HW1 1800   1.271   3.072   3.392 -1.3235 -0.1193 -0.5853
  615SOL    HW2 1801   1.292   3.012   3.542  1.4342  0.8409 -0.5401
  616SOL     OW 1802   0.336   0.345   1.317  0.2589  0.4999  0.0785
  616SOL    HW1 1803   0.325   0.295   1.403  0.2541  0.5082  0.0828
  616SOL    HW2 1804   0.356   0.281   1.243  1.6446  0.6227  0.3302
  617SOL     OW 1805   0.760   0.280   2.780  0.4705  0.3140  0.0547
  617SOL    HW1 1806   0.717   0.340   2.712  0.9333 -0.3392 -0.8319
  617SOL    HW2 1807   0.844   0.242   2.742  0.9323  0.2183  1.1378
  618SOL     OW 1808   1.249   1.418   0.642  0.1684  0.3520  0.4915
  618SOL    HW1 1809   1.171   1.392   0.700 -0.3406  0.7114 -0.0152
  618SOL    HW2 1810   1.216   1.441   0.550  1.0516 -1.0593 -0.2192
  619SOL     OW 1811   2.817   2.277   0.012 -0.4981 -0.0327  0.4099
  619SOL    HW1 1812   2.904   2.245  -0.025 -0.0870  0.9410  0.5021
  619SOL    HW2 1813   2.786   2.215   0.084  0.7470  0.2707  1.2381
  620SOL     OW 1814   1.902   3.509   0.443  0.4308  0.3714  0.1242
  620SOL    HW1 1815   1.843   3.435   0.412  1.0758  0.2992 -1.0089
  620SOL    HW2 1816   1.997   3.490   0.416  0.8637  0.8350  1.2469
  621SOL     OW 1817   3.330   2.944   1.371 -0.3063  0.1313  0.3452
  621SOL    HW1 1818   3.269   3.001   1.317 -0.0309 -1.0676 -1.2746
  621SOL    HW2 1819   3.278   2.901   1.445 -0.4241  2.8250  2.0062
  622SOL     OW 1820   2.279   1.651   3.590  0.0866  0.4187  0.1587
  622SOL    HW1 1821   2.294   1.748   3.609 -2.0502  0.7384  0.4375
  622SOL    HW2 1822   2.304   1.597   3.670 -0.7716  0.9563  0.7973
  623SOL     OW 1823   1.470   3.021   1.090 -0.0178  0.0914 -0.1289
  623SOL    HW1 1824   1.429   2.971   1.165 -0.5093  0.5894 -0.0625
  623SOL    HW2 1825   1.520   3.100   1.125  1.7519 -0.9830 -0.1271
  624SOL     OW 1826   3.381   2.180   1.958 -0.1739 -0.0826 -0.0771
  624SOL    HW1 1827   3.355   2.085   1.976 -0.3537 -0.2319 -1.1040
  624SOL    HW2 1828   3.300   2.236   1.947 -0.0652  0.0796 -0.0567
  625SOL     OW 1829   1.750   0.895   1.146  0.0566 -0.0392 -0.5655
  625SOL    HW1 1830   1.742   0.944   1.233  1.1085  1.1073 -1.0897
  625SOL    HW2 1831   1.841   0.908   1.108  0.2839 -2.2030 -0.8780
  626SOL     OW 1832   1.683   2.835   1.084 -0.5537 -0.3723 -0.5028
  626SOL    HW1 1833   1.623   2.913   1.103  0.0159 -0.5125  2.2766
  626SOL    HW2 1834   1.773   2.851   1.125  0.0729 -1.8346 -1.2266
  627SOL     OW 1835   3.242   2.616   1.526 -0.0185  0.2453 -0.1694
  627SOL    HW1 1836   3.201   2.544   1.469 -0.4413 -0.9925  1.6195
  627SOL    HW2 1837   3.341   2.616   1.513 -0.0550 -0.3989 -0.4989
  628SOL     OW 1838   0.940   3.690   2.661  0.0713 -0.0108  0.4256
  628SOL    HW1 1839   0.960   3.620   2.729 -0.2686 -0.5209  0.0083
  628SOL    HW2 1840   0.843   3.689   2.639  0.3767 -0.7527 -1.0183
  629SOL     OW 1841   1.071   2.182   1.328  0.5797  0.1524  0.6429
  629SOL    HW1 1842   1.072   2.152   1.423 -0.8146  0.0078  0.6321
  629SOL    HW2 1843   1.014   2.121   1.274  2.1973 -0.3858 -0.5339
  630SOL     OW 1844   3.504   2.999   1.975  0.2205 -0.1274  0.1312
  630SOL    HW1 1845   3.577   2.940   1.941 -1.0296 -0.2076 -2.6826
  630SOL    HW2 1846   3.425   2.943   2.001 -0.1087  0.1669 -0.2360
  631SOL     OW 1847   1.484   2.540   3.599 -0.6380  0.6315 -0.4296
  631SOL    HW1 1848   1.524   2.566   3.512 -0.2731 -0.0297 -0.4620
  631SOL    HW2 1849   1.440   2.450   3.591 -0.5246  0.5248  0.0825
  632SOL     OW 1850   3.433   3.215   0.035 -0.6938  0.1619 -0.0938
  632SOL    HW1 1851   3.343   3.244   0.003 -0.6757 -0.3917 -0.6662
  632SOL    HW2 1852   3.444   3.117   0.021 -0.8610 -0.2011  2.1032
  633SOL     OW 1853   2.294   0.084   1.741  0.0523  0.1069 -0.3009
  633SOL    HW1 1854   2.194   0.092   1.744 -0.2008 -1.8890 -1.4913
  633SOL    HW2 1855   2.328   0.049   1.828 -0.2872  0.5859  0.0305
  634SOL     OW 1856   3.500   2.859   2.281  0.1256 -0.0940  0.2797
  634SOL    HW1 1857   3.590   2.878   2.241 -0.0113 -0.4530 -0.2016
  634SOL    HW2 1858   3.492   2.761   2.300  0.1607  0.0597  1.1290
  635SOL     OW 1859   0.631   3.273   2.617 -0.1671 -0.3807 -0.1685
  635SOL    HW1 1860   0.685   3.224   2.686 -0.2593  2.8763  2.4767
  635SOL    HW2 1861   0.537   3.238   2.619 -0.6579  0.7812  2.8433
  636SOL     OW 1862   0.907   0.668   0.803  0.4097 -0.6415  0.1858
  636SOL    HW1 1863   0.984   0.730   0.810 -0.6171  0.5396  1.7418
  636SOL    HW2 1864   0.881   0.636   0.894 -1.9319  0.3170 -0.0640
  637SOL     OW 1865   2.945   2.838   0.445  0.2438 -0.2251  0.2008
  637SOL    HW1 1866   2.987   2.755   0.409  1.0745  0.8010 -1.3139
  637SOL    HW2 1867   3.014   2.910   0.455 -0.1627 -0.0946  2.8987
  638SOL     OW 1868   0.114   2.852   2.820  0.5224 -0.2005 -0.4135
  638SOL    HW1 1869   0.095   2.941   2.780 -2.4441 -0.9646 -0.9067
  638SOL    HW2 1870   0.075   2.780   2.763  0.6816 -1.6593  1.2309
  639SOL     OW 1871  -0.020   2.441   2.873 -0.4499 -0.1306  0.2558
  639SOL    HW1 1872   0.039   2.397   2.805  0.0827 -1.1266  1.3256
  639SOL    HW2 1873   0.035   2.470   2.952 -1.1012  0.7364  0.4180
  640SOL     OW 1874   0.274   2.587   0.770 -0.0908  0.7533 -0.7537
  640SOL    HW1 1875   0.181   2.622   0.768  0.2924  1.8267 -0.6773
  640SOL    HW2 1876   0.322   2.623   0.850  0.5510  0.6674 -1.0872
  641SOL     OW 1877   0.267   3.415   1.622 -0.0573 -0.6590 -0.5316
  641SOL    HW1 1878   0.206   3.451   1.692  0.7325 -1.9749  0.9159
  641SOL    HW2 1879   0.303   3.490   1.566 -0.8319  0.4091  0.3639
  642SOL     OW 1880   2.988   2.599   0.303 -0.3546  0.3388 -0.0073
  642SOL    HW1 1881   2.903   2.642   0.273 -0.1637 -0.2060 -1.4151
  642SOL    HW2 1882   2.975   2.500   0.310 -0.5032  0.4706  2.2091
  643SOL     OW 1883   0.754   3.381   0.820  0.0495  0.1478  0.3527
  643SOL    HW1 1884   0.824   3.400   0.751  0.4429 -1.1848  0.3625
  643SOL    HW2 1885   0.776   3.432   0.904 -0.3216  1.6089 -0.3933
  644SOL     OW 1886   3.418   2.583   3.499 -0.2268  0.1153  0.7180
  644SOL    HW1 1887   3.369   2.670   3.507  0.1948  0.4506 -0.1588
  644SOL    HW2 1888   3.372   2.513   3.554 -0.4061  0.9577  1.6675
  645SOL     OW 1889   0.292   2.494   1.372 -0.2902 -0.0159 -0.7675
  645SOL    HW1 1890   0.375   2.550   1.376 -0.3242  0.0691 -1.2122
  645SOL    HW2 1891   0.212   2.550   1.391 -0.1359 -0.3824  1.0949
  646SOL     OW 1892   1.058   2.666   2.912  0.8222  0.3186  0.2105
  646SOL    HW1 1893   1.148   2.707   2.929  0.6192  0.6706  0.4638
  646SOL    HW2 1894   1.012   2.650   2.999 -0.0749  1.7816  0.0523
  647SOL     OW 1895   1.396   3.489   1.037  0.3046  0.0044 -0.1633
  647SOL    HW1 1896   1.424   3.440   1.119 -0.5864 -0.1769  0.0405
  647SOL    HW2 1897   1.363   3.425   0.968  0.3449  0.2136 -0.3816
  648SOL     OW 1898   3.690   0.161   0.813  0.4700  0.3550 -0.3170
  648SOL    HW1 1899   3.684   0.236   0.878  2.9501  1.7833 -1.5951
  648SOL    HW2 1900   3.644   0.186   0.728 -1.9804 -1.1532  0.4568
  649SOL     OW 1901   1.070   2.891   0.348  0.7244  0.0469  0.5771
  649SOL    HW1 1902   1.036   2.942   0.428  1.0057  1.0346  0.0798
  649SOL    HW2 1903   1.010   2.908   0.270  0.9939 -0.1438  0.3275
  650SOL     OW 1904   0.588   2.629   0.796  0.3769  0.6608 -1.0193
  650SOL    HW1 1905   0.513   2.642   0.861 -0.6837  0.5057 -2.1662
  650SOL    HW2 1906   0.662   2.693   0.817  0.8394 -0.5584  1.3882
  651SOL     OW 1907   3.456   1.523   3.391 -0.4108  0.4026  0.0359
  651SOL    HW1 1908   3.385   1.569   3.339 -1.0690  0.3928  0.9013
  651SOL    HW2 1909   3.445   1.544   3.488  0.4824  0.0150  0.2297
  652SOL     OW 1910   2.118   2.310   0.947 -0.2423  0.3590 -0.1001
  652SOL    HW1 1911   2.072   2.225   0.975  1.5522 -0.6680 -0.0669
  652SOL    HW2 1912   2.168   2.347   1.025 -0.7735  1.2983 -0.1998
  653SOL     OW 1913   1.045   0.070   0.995  0.4865 -0.4026 -0.2589
  653SOL    HW1 1914   1.064   0.133   0.919 -0.6989  1.5783  1.0052
  653SOL    HW2 1915   1.125   0.068   1.056  0.1006  0.8730  0.3249
  654SOL     OW 1916   1.104   1.896   0.538 -0.4783  0.5667 -0.6834
  654SOL    HW1 1917   1.085   1.994   0.538  0.4218  0.7557 -1.2737
  654SOL    HW2 1918   1.197   1.881   0.505 -0.5633 -0.4796 -0.4575
  655SOL     OW 1919   0.432   1.363   0.574 -0.3878  0.3017  0.3945
  655SOL    HW1 1920   0.390   1.422   0.505 -0.2616  1.3480  1.1811
  655SOL    HW2 1921   0.400   1.269   0.562 -1.8954  0.8224  0.1414
  656SOL     OW 1922   3.298   2.992   0.772 -0.0132 -0.2440 -0.1591
  656SOL    HW1 1923   3.342   2.906   0.747  0.6582  0.3806 -1.1980
  656SOL    HW2 1924   3.203   2.974   0.801  0.3140 -1.3821  0.2522
  657SOL     OW 1925   0.974   2.010   3.694 -0.1895 -0.0492  0.4992
  657SOL    HW1 1926   0.899   2.004   3.759  0.0686 -0.0682  0.8008
  657SOL    HW2 1927   0.966   1.936   3.626 -0.8285  0.3748  0.1055
  658SOL     OW 1928   0.386   3.435   0.459  0.0019 -0.1624  0.3800
  658SOL    HW1 1929   0.291   3.463   0.469 -0.9891 -2.4136 -1.7271
  658SOL    HW2 1930   0.397   3.343   0.497  1.5161  0.2837  1.1018
  659SOL     OW 1931   1.257   3.099   2.316  0.2363 -0.1804 -0.1476
  659SOL    HW1 1932   1.255   3.008   2.358 -0.7007  0.1739  0.6094
  659SOL    HW2 1933   1.317   3.159   2.369 -1.0843  0.3157  0.8205
  660SOL     OW 1934   2.953   1.876   3.103 -0.0032 -0.2056 -0.3251
  660SOL    HW1 1935   2.882   1.945   3.088  1.1151  1.0130 -0.1279
  660SOL    HW2 1936   3.043   1.919   3.100  0.7886 -1.8327 -1.2273
  661SOL     OW 1937   1.431   2.519   1.245 -0.2037  0.3121 -0.5813
  661SOL    HW1 1938   1.354   2.460   1.271 -1.5905  1.5703 -1.6269
  661SOL    HW2 1939   1.437   2.595   1.309  1.3931 -0.7518  0.5907
  662SOL     OW 1940   0.026   2.226   0.171 -0.2389  0.5726  0.1811
  662SOL    HW1 1941   0.084   2.296   0.214  0.6034  0.6274 -0.9878
  662SOL    HW2 1942   0.054   2.214   0.075 -1.7495  0.1282 -0.2332
  663SOL     OW 1943   1.283   3.738   1.104  0.5903  0.0901 -0.2762
  663SOL    HW1 1944   1.255   3.718   1.198  0.9161  1.5989  0.1843
  663SOL    HW2 1945   1.322   3.656   1.062  0.2913 -0.6503  0.8483
  664SOL     OW 1946   0.629   2.223   0.513 -0.1275  0.2190  0.4574
  664SOL    HW1 1947   0.610   2.312   0.553  2.3719  0.5154  1.1760
  664SOL    HW2 1948   0.675   2.234   0.425  1.9060 -0.2369  1.3931
  665SOL     OW 1949   0.614   3.559   1.557  0.2346  0.5523  0.4110
  665SOL    HW1 1950   0.644   3.464   1.565  0.2054  0.3708 -1.2053
  665SOL    HW2 1951   0.593   3.596   1.648 -2.2948 -1.7819  0.9052
  666SOL     OW 1952   3.647   1.381   1.255 -0.3117  0.1499 -0.6390
  666SOL    HW1 1953   3.568   1.429   1.217  0.0703 -0.2449 -1.9628
  666SOL    HW2 1954   3.615   1.302   1.307 -1.0851  2.5531  2.9562
  667SOL     OW 1955   0.603   3.418   3.665  0.9150  0.0999  0.1584
  667SOL    HW1 1956   0.570   3.324   3.678  2.0167 -0.5232 -1.1618
  667SOL    HW2 1957   0.648   3.449   3.749  1.3761 -0.9305  0.3198
  668SOL     OW 1958   2.694   2.715   0.246 -0.1090 -0.0470  0.3406
  668SOL    HW1 1959   2.707   2.799   0.193 -1.2523  0.4224  0.7707
  668SOL    HW2 1960   2.660   2.738   0.337 -2.5905 -1.0350 -0.2404
  669SOL     OW 1961   1.182   3.392   0.640  0.7727  0.2413 -0.1969
  669SOL    HW1 1962   1.139   3.480   0.662  1.0325 -0.1558  2.2219
  669SOL    HW2 1963   1.264   3.408   0.584  0.0695  1.3906 -0.9361
  670SOL     OW 1964   0.381   2.679   1.024 -0.3894  0.1231  0.0906
  670SOL    HW1 1965   0.295   2.656   1.070 -0.3017  0.9701  0.7184
  670SOL    HW2 1966   0.402   2.775   1.042  0.7108 -0.0919 -0.0339
  671SOL     OW 1967   1.518   3.693   0.929 -0.8414 -0.3022  0.4592
  671SOL    HW1 1968   1.470   3.614   0.969 -0.1009  0.1566  2.3751
  671SOL    HW2 1969   1.614   3.669   0.914 -0.6863  0.1257  0.7458
  672SOL     OW 1970   3.515   3.385   0.731 -0.2501 -0.7826  0.0559
  672SOL    HW1 1971   3.614   3.378   0.716 -0.2215 -0.4797  0.0953
  672SOL    HW2 1972   3.498   3.434   0.816 -0.4415 -0.2516 -0.2838
  673SOL     OW 1973   0.180   1.424   0.247 -0.5360 -0.3232  0.2815
  673SOL    HW1 1974   0.231   1.413   0.161 -2.4739 -0.4458 -0.8945
  673SOL    HW2 1975   0.150   1.335   0.279 -2.8247 -0.0187 -0.8487
  674SOL     OW 1976   1.123   2.719   2.520  0.0615  0.1349  0.2419
  674SOL    HW1 1977   1.124   2.620   2.525 -1.2870  0.1306  1.1570
  674SOL    HW2 1978   1.074   2.756   2.599 -0.4512  1.4655 -0.6466
  675SOL     OW 1979   1.325   1.170   3.243 -0.2494 -0.0992  0.7201
  675SOL    HW1 1980   1.241   1.122   3.218  0.9751 -2.1569  0.4120
  675SOL    HW2 1981   1.387   1.173   3.165 -0.4679  2.5234  0.5538
  676SOL     OW 1982   0.675   2.327   1.908  0.0473  0.1135  0.0062
  676SOL    HW1 1983   0.633   2.392   1.971 -1.5228  1.6566 -2.4531
  676SOL    HW2 1984   0.732   2.375   1.843  1.3207 -1.3856 -0.0366
  677SOL     OW 1985   3.293   3.507   2.471  0.8596 -0.1954  1.0687
  677SOL    HW1 1986   3.201   3.511   2.511 -1.4726  1.5818 -3.6844
  677SOL    HW2 1987   3.334   3.598   2.474  0.4420  0.0802 -0.7739
  678SOL     OW 1988   2.745  -0.006   2.402  1.0847 -0.2154  0.5661
  678SOL    HW1 1989   2.807   0.073   2.394  0.3673  0.2113 -1.1163
  678SOL    HW2 1990   2.651   0.026   2.398  0.7403 -0.9731  2.0962
  679SOL     OW 1991   1.880   2.464   3.514  0.0890  0.0621 -0.3513
  679SOL    HW1 1992   1.876   2.487   3.611  1.9528  1.9992 -0.6540
  679SOL    HW2 1993   1.877   2.365   3.503  0.0421 -0.2022  1.6887
  680SOL     OW 1994   1.359   0.198   0.446 -0.4589  0.0342  0.1158
  680SOL    HW1 1995   1.437   0.198   0.508 -0.5464  0.7020  0.2320
  680SOL    HW2 1996   1.359   0.283   0.393 -1.0635  0.0049  0.0624
  681SOL     OW 1997   3.563   0.968   0.425  0.2038 -0.4677 -0.5203
  681SOL    HW1 1998   3.559   0.871   0.446  2.1753 -0.3488  0.6007
  681SOL    HW2 1999   3.621   0.983   0.345  0.2943 -0.1739 -0.4037
  682SOL     OW 2000   1.480   0.243   3.112 -0.1271 -0.3298 -0.6667
  682SOL    HW1 2001   1.398   0.186   3.102  0.7981 -2.0315  0.8655
  682SOL    HW2 2002   1.462   0.317   3.176 -0.3868 -0.8760 -0.1053
  683SOL     OW 2003   0.217   3.597   0.206 -0.1234 -0.2805 -0.7955
  683SOL    HW1 2004   0.273   3.610   0.124 -1.1391 -0.3065 -1.5053
  683SOL    HW2 2005   0.173   3.507   0.203  1.1408 -0.9903  0.6003
  684SOL     OW 2006   2.425   0.128   3.372 -0.1681 -0.1047  0.3045
  684SOL    HW1 2007   2.464   0.097   3.286 -2.0029 -0.7991 -0.3201
  684SOL    HW2 2008   2.341   0.180   3.355  0.3024  1.1754  1.6036
  685SOL     OW 2009   1.093   0.080   0.473  0.4627  0.1502  0.2224
  685SOL    HW1 2010   1.093   0.024   0.556 -0.9270  0.7165  0.6506
  685SOL    HW2 2011   1.185   0.115   0.456  1.4276 -2.3486 -0.1647
  686SOL     OW 2012   0.565   1.601   2.007 -0.1118 -0.3603  0.8406
  686SOL    HW1 2013   0.480   1.602   2.060  0.7632 -1.8062  2.3787
  686SOL    HW2 2014   0.641   1.574   2.067  1.0885 -1.1666 -0.9664
  687SOL     OW 2015   3.553   2.255   1.736  0.5580 -0.4386 -0.2084
  687SOL    HW1 2016   3.497   2.247   1.818  1.6519 -1.5865  0.4526
  687SOL    HW2 2017   3.593   2.347   1.732  3.0984 -1.2989  2.3214
  688SOL     OW 2018   1.594   0.127   0.593  0.5514  0.0007 -0.5121
  688SOL    HW1 2019   1.597   0.072   0.509 -0.9022 -2.9132  1.2010
  688SOL    HW2 2020   1.685   0.133   0.633  0.9260 -0.1770 -1.3250
  689SOL     OW 2021   1.178   2.457   2.474 -0.0567 -0.1480 -0.3623
  689SOL    HW1 2022   1.270   2.449   2.435  0.3843  0.3177  0.5478
  689SOL    HW2 2023   1.158   2.377   2.530 -0.2499 -0.2927 -0.6342
  690SOL     OW 2024   3.546   2.033   2.717 -0.1722 -0.1051  0.2688
  690SOL    HW1 2025   3.600   2.025   2.633 -0.9677  0.8598 -0.3484
  690SOL    HW2 2026   3.450   2.048   2.693 -0.4745 -0.2536  1.3585
  691SOL     OW 2027   0.387   0.023   2.309  0.2883  0.3410  0.4131
  691SOL    HW1 2028   0.465   0.069   2.266 -0.8476  1.5594 -0.3981
  691SOL    HW2 2029   0.387  -0.074   2.283  0.2402  0.8229 -1.5142
  692SOL     OW 2030   1.023   2.936   0.964 -0.6545  0.2616  0.2986
  692SOL    HW1 2031   1.022   2.849   0.915 -1.7997  0.2554  0.3175
  692SOL    HW2 2032   1.013   2.920   1.062 -0.5768  0.3966  0.3299
  693SOL     OW 2033   2.705   1.267   2.618 -0.2510 -0.1434  0.1352
  693SOL    HW1 2034   2.625   1.279   2.561 -0.9872 -0.0131  1.1682
  693SOL    HW2 2035   2.780   1.228   2.564 -0.6605  0.7213 -1.0908
  694SOL     OW 2036   0.565   0.206   0.963 -0.4760 -0.1955  0.3406
  694SOL    HW1 2037   0.547   0.142   0.888  2.1298  1.3556 -1.7494
  694SOL    HW2 2038   0.648   0.178   1.011 -0.8626  0.1091  1.2038
  695SOL     OW 2039   1.414   2.982   1.815  0.0113 -0.5659  0.3137
  695SOL    HW1 2040   1.343   2.954   1.750  1.0507  1.2202 -1.7204
  695SOL    HW2 2041   1.371   3.012   1.900 -1.2836 -5.2005  1.5862
  696SOL     OW 2042   3.656   0.522   2.522 -0.5028 -1.0873  0.6035
  696SOL    HW1 2043   3.695   0.432   2.540 -0.7335 -1.3506 -0.1833
  696SOL    HW2 2044   3.589   0.545   2.593  0.2172 -1.1386  1.3082
  697SOL     OW 2045   2.414   0.018   1.331  0.0108  0.0609  0.4287
  697SOL    HW1 2046   2.381   0.101   1.286 -2.1153 -1.7167 -1.5634
  697SOL    HW2 2047   2.441  -0.049   1.261  1.9811 -0.8527  1.9825
  698SOL     OW 2048   1.730   0.410   1.934  0.4124  0.4237 -0.2366
  698SOL    HW1 2049   1.763   0.504   1.927  1.2019  0.0396 -3.9974
  698SOL    HW2 2050   1.806   0.350   1.959  1.0895  0.3429 -2.2795
  699SOL     OW 2051   0.981   1.422   0.750 -0.0585 -0.1711 -1.1428
  699SOL    HW1 2052   0.920   1.495   0.721 -0.6936 -1.0926 -2.1873
  699SOL    HW2 2053   0.928   1.347   0.790  0.6305  0.1424  0.4433
  700SOL     OW 2054   0.944   3.599   3.276 -0.0883 -0.7184 -0.3285
  700SOL    HW1 2055   0.896   3.651   3.347  2.1256  1.6106 -0.3824
  700SOL    HW2 2056   0.894   3.609   3.189 -1.7413 -1.9338  0.4391
  701SOL     OW 2057   1.665   2.175   3.232 -0.3821  0.1088  0.4692
  701SOL    HW1 2058   1.620   2.230   3.162  3.1725  2.1647 -0.4656
  701SOL    HW2 2059   1.665   2.079   3.204 -0.8938  0.5955 -1.3144
  702SOL     OW 2060   1.478   2.206   2.441 -0.4039  0.0389  0.4146
  702SOL    HW1 2061   1.427   2.209   2.527  1.6972  1.2068  1.6810
  702SOL    HW2 2062   1.536   2.125   2.440  0.9255  0.9686  0.9280
  703SOL     OW 2063   3.020   2.522   2.992 -0.1835 -0.0260  0.1887
  703SOL    HW1 2064   3.048   2.608   3.034  0.0940  1.0432 -2.0229
  703SOL    HW2 2065   2.998   2.538   2.896 -1.8989 -2.1157  0.1632
  704SOL     OW 2066   1.226   2.840   0.674 -0.7346 -0.3328 -0.0963
  704SOL    HW1 2067   1.240   2.783   0.593  0.4468  0.4860 -0.4960
  704SOL    HW2 2068   1.180   2.925   0.647 -0.2658 -0.0218  0.0727
  705SOL     OW 2069   1.850   3.084   2.745 -0.0697 -0.1363 -0.3299
  705SOL    HW1 2070   1.862   3.125   2.654 -1.5306 -0.4324 -0.6865
  705SOL    HW2 2071   1.786   3.007   2.738 -0.0217 -0.3051  0.9234
  706SOL     OW 2072   0.743   0.655   0.582  0.4708  0.2420 -0.0565
  706SOL    HW1 2073   0.810   0.651   0.656 -0.9321 -3.4575  1.2441
  706SOL    HW2 2074   0.682   0.734   0.596  1.8915  1.1836  1.1379
  707SOL     OW 2075   0.742   0.674   2.091 -0.3561  0.2313 -0.4169
  707SOL    HW1 2076   0.808   0.620   2.039 -1.0271 -1.7530  0.6870
  707SOL    HW2 2077   0.649   0.640   2.072 -0.9257  1.8072 -0.5903
  708SOL     OW 2078   2.171   3.434   1.861  0.1524 -0.6975 -0.1559
  708SOL    HW1 2079   2.251   3.487   1.890  1.2537 -1.0240 -2.3697
  708SOL    HW2 2080   2.094   3.495   1.847  0.3831 -0.1884  0.7035
  709SOL     OW 2081   1.288   2.194   2.240  0.0685  0.4287 -0.1370
  709SOL    HW1 2082   1.368   2.192   2.300 -0.3741  2.3390  0.5630
  709SOL    HW2 2083   1.228   2.116   2.262  1.7849 -1.1846 -0.8502
  710SOL     OW 2084   0.399   2.830   3.647 -0.0651  0.0352 -0.2333
  710SOL    HW1 2085   0.423   2.733   3.654  1.0942  0.3894  1.0580
  710SOL    HW2 2086   0.330   2.852   3.716 -0.6290  0.0575 -0.7939
  711SOL     OW 2087   0.855   2.483   1.746 -0.2742  0.0435  0.3173
  711SOL    HW1 2088   0.880   2.561   1.802  0.0544  0.0227  0.2018
  711SOL    HW2 2089   0.831   2.513   1.654  0.9395 -0.0913 -0.0585
  712SOL     OW 2090   0.264   0.596   3.288 -0.1543  0.3734  0.2864
  712SOL    HW1 2091   0.252   0.614   3.191  1.6255 -0.2008 -0.0803
  712SOL    HW2 2092   0.278   0.683   3.336  1.9040  0.5195 -0.4688
  713SOL     OW 2093   1.354   0.399   2.643 -0.2254 -0.3719  0.4760
  713SOL    HW1 2094   1.380   0.302   2.636  0.7751 -0.0131 -1.2548
  713SOL    HW2 2095   1.331   0.434   2.552 -1.1622  0.8892  1.1642
  714SOL     OW 2096   2.563   2.505   0.138 -0.6173  0.2987 -0.2316
  714SOL    HW1 2097   2.597   2.593   0.171  2.4377 -0.0549 -2.0925
  714SOL    HW2 2098   2.623   2.432   0.169 -1.1696 -0.7277 -1.4962
  715SOL     OW 2099   0.482   2.559   3.671 -0.7447  0.3667 -0.1485
  715SOL    HW1 2100   0.469   2.496   3.748 -1.0550 -0.1325 -0.6009
  715SOL    HW2 2101   0.569   2.539   3.626  0.1462  1.6475  0.9780
  716SOL     OW 2102   1.612   2.782   1.794 -0.4689  0.1089  0.2829
  716SOL    HW1 2103   1.549   2.855   1.822  0.6036  0.9158  0.6872
  716SOL    HW2 2104   1.608   2.770   1.695 -1.7769 -0.3645  0.3746
  717SOL     OW 2105   0.879   2.502   0.197  0.4971  0.3094 -0.1473
  717SOL    HW1 2106   0.971   2.537   0.180  0.8774  0.0621  1.2477
  717SOL    HW2 2107   0.813   2.576   0.191  1.1220  1.0322  1.3913
  718SOL     OW 2108   0.037   0.086   3.614  0.1601  0.1346  0.0150
  718SOL    HW1 2109   0.048  -0.013   3.614 -0.1055  0.1039 -0.2782
  718SOL    HW2 2110   0.112   0.128   3.665 -0.5661 -0.3222  1.5315
  719SOL     OW 2111   0.865   2.673   0.951 -0.6518 -0.3078 -0.0354
  719SOL    HW1 2112   0.945   2.618   0.974 -0.5405  0.7921  2.6129
  719SOL    HW2 2113   0.793   2.657   1.018 -0.9896  1.9288  0.2197
  720SOL     OW 2114   2.295   2.863   3.049 -0.0497  0.1032  0.2620
  720SOL    HW1 2115   2.320   2.775   3.009 -0.7461  0.2532 -0.5016
  720SOL    HW2 2116   2.199   2.881   3.033  0.0449  0.9223  0.5912
  721SOL     OW 2117   1.829   3.175   2.471  0.2889  0.1506  0.0854
  721SOL    HW1 2118   1.841   3.274   2.464 -1.2119  0.4296  0.9636
  721SOL    HW2 2119   1.750   3.147   2.416 -0.0583 -0.3632  0.8302
  722SOL     OW 2120   1.636   1.907   3.239 -0.2070 -1.0115 -0.2617
  722SOL    HW1 2121   1.537   1.894   3.242 -0.3905  0.2561 -0.3115
  722SOL    HW2 2122   1.677   1.833   3.186 -1.3522 -0.4625 -2.0353
  723SOL     OW 2123   1.546   1.546   1.953  0.4020 -0.1473 -0.0200
  723SOL    HW1 2124   1.490   1.524   1.872 -0.8614 -1.3440  1.1214
  723SOL    HW2 2125   1.585   1.462   1.990  2.4555  0.5943 -0.3820
  724SOL     OW 2126   3.246   3.349   2.811  0.5114 -0.1621 -0.0641
  724SOL    HW1 2127   3.159   3.371   2.767 -0.1139  1.0547  1.6548
  724SOL    HW2 2128   3.230   3.284   2.886  0.4631  2.3901  2.3070
  725SOL     OW 2129   1.538   0.104   2.186 -0.0598  0.4665  0.3657
  725SOL    HW1 2130   1.517   0.200   2.170  1.4198  0.6076 -0.8486
  725SOL    HW2 2131   1.521   0.051   2.103  0.7583 -0.0408  0.5119
  726SOL     OW 2132   3.488   3.622   3.668 -0.3490 -0.2603 -0.4825
  726SOL    HW1 2133   3.576   3.576   3.659 -1.5485 -2.4256 -2.2550
  726SOL    HW2 2134   3.469   3.640   3.765  0.9901 -1.9804  0.1481
  727SOL     OW 2135   1.126   2.890   3.059 -0.0433 -0.3299 -0.6626
  727SOL    HW1 2136   1.141   2.859   3.153 -0.2345  0.0332 -0.5110
  727SOL    HW2 2137   1.059   2.963   3.059 -3.0889 -2.9197 -1.4788
  728SOL     OW 2138   1.217   3.380   3.002 -0.4283  0.2934 -0.2585
  728SOL    HW1 2139   1.298   3.435   3.025 -1.0592  1.7962 -1.4925
  728SOL    HW2 2140   1.149   3.389   3.075 -0.7217  1.6047 -0.6577
  729SOL     OW 2141   1.271   3.124   0.425 -0.4807  0.0676 -0.3329
  729SOL    HW1 2142   1.228   3.189   0.487 -0.4361  3.0768 -3.1696
  729SOL    HW2 2143   1.201   3.065   0.385 -0.8943  0.0045  0.4716
  730SOL     OW 2144   1.591   3.141   1.626 -0.0787 -0.2627 -0.0363
  730SOL    HW1 2145   1.642   3.070   1.576  0.1024 -0.0144 -0.2056
  730SOL    HW2 2146   1.536   3.098   1.698  0.8332 -0.4705  0.5466
  731SOL     OW 2147   3.165   2.561   2.608  0.3258  0.2134  0.4020
  731SOL    HW1 2148   3.096   2.535   2.676  0.8067  1.3367  1.3453
  731SOL    HW2 2149   3.186   2.482   2.551 -1.5244 -0.2450  0.2702
  732SOL     OW 2150   1.810   1.517   2.954 -0.0748 -0.2374  0.3735
  732SOL    HW1 2151   1.754   1.434   2.954 -1.3385  0.5794 -0.8334
  732SOL    HW2 2152   1.828   1.545   2.860  2.9432 -0.8094  0.6960
  733SOL     OW 2153   0.623   0.015   2.088 -0.1507  0.3345  0.5364
  733SOL    HW1 2154   0.704   0.066   2.116  0.5611  1.9339 -3.6847
  733SOL    HW2 2155   0.571   0.069   2.022 -1.9651 -2.6198 -0.6421
  734SOL     OW 2156   2.380   0.745   2.460 -0.2647 -0.1293 -0.0368
  734SOL    HW1 2157   2.335   0.672   2.511 -2.2770  0.5264 -0.7578
  734SOL    HW2 2158   2.425   0.808   2.524 -0.1865 -0.9203  0.7019
  735SOL     OW 2159   0.983   1.213   0.152 -0.2056 -0.7449 -0.6572
  735SOL    HW1 2160   1.026   1.293   0.110  0.4452 -0.7311  0.0168
  735SOL    HW2 2161   0.969   1.231   0.249  1.7519 -2.1664 -0.0558
  736SOL     OW 2162   0.927   2.688   1.909 -0.3847  0.4516  0.4131
  736SOL    HW1 2163   0.928   2.679   2.008  0.0419 -0.4019  0.3421
  736SOL    HW2 2164   1.007   2.739   1.879 -0.2380  0.2541  0.4692
  737SOL     OW 2165   0.939   2.441   2.350  0.1573  0.3882  0.0510
  737SOL    HW1 2166   0.894   2.527   2.328 -0.2731  0.0815 -0.2698
  737SOL    HW2 2167   1.030   2.460   2.388  0.7670  0.9481 -1.5948
  738SOL     OW 2168   1.728   1.708   3.659 -0.3008  0.0431 -0.3244
  738SOL    HW1 2169   1.778   1.623   3.677 -1.8348 -0.8523 -0.1386
  738SOL    HW2 2170   1.708   1.753   3.746  0.6321  0.6819 -0.4315
  739SOL     OW 2171   0.900   1.556   1.917 -0.1557  0.4355  0.2985
  739SOL    HW1 2172   0.832   1.604   1.861 -0.5423 -1.6356 -1.1040
  739SOL    HW2 2173   0.891   1.458   1.905  1.7289  0.0085  1.7496
  740SOL     OW 2174   3.385   1.954   1.133  0.1621 -0.2899  0.0928
  740SOL    HW1 2175   3.285   1.951   1.138 -0.0084  2.0412 -0.9814
  740SOL    HW2 2176   3.420   1.862   1.115 -1.7883 -1.0971  0.1939
  741SOL     OW 2177   1.408   3.098   2.710 -0.1513 -0.4299 -0.0424
  741SOL    HW1 2178   1.407   3.172   2.777 -1.5142 -1.8418  1.6133
  741SOL    HW2 2179   1.500   3.060   2.703  0.5279  1.2925 -0.8184
  742SOL     OW 2180   2.647   2.227   0.637  0.0492  0.1134 -0.3619
  742SOL    HW1 2181   2.601   2.310   0.604 -3.2523 -1.4974 -0.2531
  742SOL    HW2 2182   2.660   2.233   0.736  2.3952  1.5530 -0.6911
  743SOL     OW 2183   1.207   3.476   2.295 -0.0864  0.3566 -0.0449
  743SOL    HW1 2184   1.185   3.567   2.329  4.2461  1.2013  1.0249
  743SOL    HW2 2185   1.197   3.409   2.369  1.1338  0.7905  0.5397
  744SOL     OW 2186   1.863   1.964   3.665 -0.9449  0.3093  0.2906
  744SOL    HW1 2187   1.843   2.045   3.610  0.6634 -1.5240 -3.3407
  744SOL    HW2 2188   1.794   1.894   3.647 -0.1813 -0.4580  0.2956
  745SOL     OW 2189   0.318   1.989   1.717  0.7352 -0.5001  0.0749
  745SOL    HW1 2190   0.230   2.024   1.686  0.9061 -0.0345  0.1093
  745SOL    HW2 2191   0.371   2.063   1.759  0.3955 -1.1647  1.7629
  746SOL     OW 2192   1.141   3.304   1.931  0.1236 -0.1920 -0.0751
  746SOL    HW1 2193   1.147   3.318   1.832  2.6046  0.5866  0.1178
  746SOL    HW2 2194   1.045   3.305   1.959 -0.6681 -0.8011 -2.5005
  747SOL     OW 2195   0.358   0.860   2.441  0.4499  0.2120 -0.0894
  747SOL    HW1 2196   0.323   0.895   2.527 -0.9093  0.2575 -0.6325
  747SOL    HW2 2197   0.282   0.835   2.382  1.3209  1.0827 -1.6563
  748SOL     OW 2198   1.348   1.461   1.782  0.2141 -0.3164 -0.5301
  748SOL    HW1 2199   1.298   1.431   1.864  0.2650  0.1765 -0.3148
  748SOL    HW2 2200   1.300   1.429   1.700 -0.1695 -0.2967 -0.3157
  749SOL     OW 2201   0.482   2.939   1.043  0.6853 -0.0525  0.1627
  749SOL    HW1 2202   0.539   2.913   0.965  0.0241 -0.5332 -0.1702
  749SOL    HW2 2203   0.445   3.031   1.028  0.5069 -0.1685 -0.1271
  750SOL     OW 2204   0.461   2.901   2.138  0.2860  0.7958  0.0806
  750SOL    HW1 2205   0.528   2.938   2.203  0.8947  1.5565 -0.9642
  750SOL    HW2 2206   0.385   2.965   2.128  0.7099  1.1896 -0.7415
  751SOL     OW 2207   0.950   2.726   2.179  0.1221 -0.2043  0.1167
  751SOL    HW1 2208   0.965   2.815   2.222  1.5856 -0.5010  0.2488
  751SOL    HW2 2209   1.037   2.685   2.155 -0.5832 -1.0346 -1.1633
  752SOL     OW 2210   1.965   0.397   2.274 -0.4298  0.0386 -0.9373
  752SOL    HW1 2211   1.938   0.308   2.312 -0.7735 -0.3189 -1.9942
  752SOL    HW2 2212   2.031   0.440   2.335 -2.2081  0.2551  0.9645
  753SOL     OW 2213   0.194   1.809   3.331 -0.4229 -0.0346 -0.3747
  753SOL    HW1 2214   0.096   1.818   3.351 -0.5519 -1.7005 -0.1095
  753SOL    HW2 2215   0.244   1.800   3.416 -0.2778 -1.1444 -0.5656
  754SOL     OW 2216   0.826   2.557   2.779 -0.4849 -0.4507 -0.2082
  754SOL    HW1 2217   0.752   2.589   2.839 -1.7493  1.3073 -2.5434
  754SOL    HW2 2218   0.909   2.609   2.798 -1.2458  1.0392 -0.8127
  755SOL     OW 2219   0.780   1.535   3.677 -0.2545  0.4429  0.1875
  755SOL    HW1 2220   0.879   1.530   3.661 -0.6073 -1.1177 -1.9716
  755SOL    HW2 2221   0.746   1.626   3.652  0.5763  0.8940  0.6681
  756SOL     OW 2222   1.108   1.980   3.386 -0.3113 -0.4743  0.1779
  756SOL    HW1 2223   1.077   1.900   3.436 -0.7858 -1.7549 -2.0455
  756SOL    HW2 2224   1.031   2.043   3.372 -0.2708 -0.3116  0.6694
  757SOL     OW 2225   1.706   1.961   2.925 -0.0836  0.5002  0.0391
  757SOL    HW1 2226   1.766   1.974   3.003  0.0750 -1.2906  0.2567
  757SOL    HW2 2227   1.747   1.897   2.860 -0.9636  0.6300 -0.6792
  758SOL     OW 2228   1.223   0.561   2.815 -0.0559 -0.3799 -0.0809
  758SOL    HW1 2229   1.270   0.484   2.772  0.3272  0.0778 -0.5021
  758SOL    HW2 2230   1.262   0.578   2.905 -0.6704 -1.1646  0.3483
  759SOL     OW 2231   0.709   3.477   2.485 -0.5694 -0.4043 -0.0713
  759SOL    HW1 2232   0.758   3.448   2.403 -0.7250 -0.3311 -0.1921
  759SOL    HW2 2233   0.678   3.397   2.535 -0.3385 -0.4506 -0.0011
  760SOL     OW 2234   1.079   3.582   1.791  0.2485 -0.6014 -0.1216
  760SOL    HW1 2235   1.078   3.499   1.735 -2.0113 -1.3170  0.8474
  760SOL    HW2 2236   0.992   3.630   1.781  1.3969  1.5592 -0.4394
  761SOL     OW 2237   0.782   2.297   1.403 -0.0180 -0.1631 -0.4564
  761SOL    HW1 2238   0.730   2.285   1.319 -3.8118 -1.2438  1.7735
  761SOL    HW2 2239   0.817   2.208   1.434  0.1333 -0.0049 -0.1663
  762SOL     OW 2240   1.458   0.416   1.858 -0.6339 -0.3524  0.3221
  762SOL    HW1 2241   1.507   0.337   1.822  1.6536  1.9696 -2.1772
  762SOL    HW2 2242   1.516   0.463   1.925 -1.0537  0.3096  0.2348
  763SOL     OW 2243   1.413   1.927   1.800 -0.0862 -0.7521 -0.0827
  763SOL    HW1 2244   1.376   1.862   1.734 -0.3381 -0.3977 -0.2891
  763SOL    HW2 2245   1.431   1.880   1.886  1.0229 -1.4020 -0.6478
  764SOL     OW 2246   1.128   1.997   2.336 -0.7824  0.1060 -0.4902
  764SOL    HW1 2247   1.142   1.917   2.395  0.8708  0.3975 -0.4401
  764SOL    HW2 2248   1.081   1.969   2.252  0.4792 -1.0845 -0.8250
  765SOL     OW 2249   1.672   1.104   0.782  0.2385 -0.1218 -0.2319
  765SOL    HW1 2250   1.654   1.012   0.817  1.1553  0.3850  1.7224
  765SOL    HW2 2251   1.590   1.140   0.739 -0.7020 -1.1780  0.6136
  766SOL     OW 2252   1.882   3.100   0.356 -0.0861  0.2276 -0.8519
  766SOL    HW1 2253   1.963   3.067   0.405 -1.5865 -1.5438  0.5641
  766SOL    HW2 2254   1.838   3.024   0.310 -0.1669  1.4380 -2.8931
  767SOL     OW 2255   1.608   3.586   2.416  0.0863  0.1246  0.0410
  767SOL    HW1 2256   1.650   3.571   2.506  0.9265  1.0432 -0.1779
  767SOL    HW2 2257   1.530   3.648   2.426  1.1105  1.4688 -0.0441
  768SOL     OW 2258   1.623   2.909   2.714 -0.0046 -0.1684 -0.9893
  768SOL    HW1 2259   1.615   2.824   2.765 -0.0917 -0.1875 -1.0336
  768SOL    HW2 2260   1.588   2.896   2.621  1.9633 -0.6627 -1.6960
  769SOL     OW 2261   2.655   3.309   2.183  0.3368 -0.2186  0.1247
  769SOL    HW1 2262   2.731   3.262   2.228  1.4960  2.9227  1.7259
  769SOL    HW2 2263   2.679   3.405   2.170 -2.5339  0.3749 -1.4242
  770SOL     OW 2264   1.165   3.662  -0.001  0.6234  0.0924  0.2840
  770SOL    HW1 2265   1.131   3.699   0.085  0.3522 -1.8942  1.0829
  770SOL    HW2 2266   1.164   3.562   0.003  1.0736 -0.0393 -1.8567
  771SOL     OW 2267   1.020   0.466   0.042  0.0061 -0.1727 -0.0889
  771SOL    HW1 2268   1.110   0.452  -0.001  0.0412  0.5180 -0.2638
  771SOL    HW2 2269   0.957   0.395   0.013  0.3767 -0.4064 -0.3248
  772SOL     OW 2270   1.677   2.522   2.990 -0.0839  0.1884  0.4758
  772SOL    HW1 2271   1.613   2.445   3.001  0.1596  0.0878  1.2758
  772SOL    HW2 2272   1.656   2.570   2.905 -0.2542 -0.7461 -0.0283
  773SOL     OW 2273   1.362   1.829   0.422  0.0244  0.6307 -0.4569
  773SOL    HW1 2274   1.368   1.747   0.479  0.8214  0.1657 -1.2032
  773SOL    HW2 2275   1.431   1.895   0.452 -0.3752  0.8886 -0.0935
  774SOL     OW 2276   1.496   0.419   2.891  0.2316 -0.3491 -0.2118
  774SOL    HW1 2277   1.482   0.381   2.800  0.4850  1.3774 -1.0006
  774SOL    HW2 2278   1.493   0.345   2.958 -0.1974 -1.6235 -1.5774
  775SOL     OW 2279   2.672   0.140   0.440  0.7908 -0.2535 -0.4430
  775SOL    HW1 2280   2.688   0.113   0.535 -0.3958  2.3662  0.5901
  775SOL    HW2 2281   2.600   0.084   0.401 -1.7090  1.2855  1.6569
  776SOL     OW 2282   3.435   2.604   2.218 -1.1949 -0.2542  0.0395
  776SOL    HW1 2283   3.415   2.506   2.220 -2.9767  0.0832  0.6169
  776SOL    HW2 2284   3.396   2.644   2.135 -2.7938  0.3859  1.0684
  777SOL     OW 2285   1.664   1.691   3.095 -0.2060 -0.8389 -0.5955
  777SOL    HW1 2286   1.599   1.626   3.134  0.5277 -0.8775  0.6228
  777SOL    HW2 2287   1.736   1.641   3.047  0.1829 -0.9368  0.0674
  778SOL     OW 2288   2.429   3.593   1.595  0.7576 -0.3912 -0.3940
  778SOL    HW1 2289   2.362   3.659   1.629  0.8416 -0.3668 -0.2738
  778SOL    HW2 2290   2.429   3.594   1.495  1.3824  0.4386 -0.3967
  779SOL     OW 2291   1.322   2.235   0.915  0.1508 -0.0397 -0.5401
  779SOL    HW1 2292   1.289   2.141   0.921  1.1019 -0.4228 -1.1519
  779SOL    HW2 2293   1.244   2.298   0.920 -1.0106 -0.9637 -4.1866
  780SOL     OW 2294   1.599   2.699   1.483 -0.0441 -0.4177  0.6762
  780SOL    HW1 2295   1.625   2.602   1.486  0.3543 -0.4002 -1.1179
  780SOL    HW2 2296   1.503   2.706   1.455  0.3577 -0.2855 -0.7495
  781SOL     OW 2297   2.944   0.405   2.979  0.2777  0.3789 -0.1160
  781SOL    HW1 2298   2.992   0.337   2.922  0.5287  0.0899  0.4375
  781SOL    HW2 2299   3.011   0.468   3.019  0.1334  0.3843  0.1178
  782SOL     OW 2300   0.495   1.722   0.057 -0.4729 -0.1251 -0.2907
  782SOL    HW1 2301   0.542   1.732  -0.030  1.4272  2.1515  0.8866
  782SOL    HW2 2302   0.530   1.642   0.105  2.4727  1.5383  0.5809
  783SOL     OW 2303   1.025   0.273   3.454 -0.2859  0.2981 -0.0204
  783SOL    HW1 2304   0.972   0.290   3.372 -1.7801  0.8576  1.0257
  783SOL    HW2 2305   0.989   0.193   3.501  0.5111  0.0235  0.1350
  784SOL     OW 2306   0.561   2.006   3.090  0.0402  0.5244 -0.3555
  784SOL    HW1 2307   0.499   2.066   3.140 -0.6089  1.3524 -2.0913
  784SOL    HW2 2308   0.642   1.988   3.145 -0.2703  2.0738  0.6493
  785SOL     OW 2309   3.279   1.513   3.152  0.4990  0.6930  0.4872
  785SOL    HW1 2310   3.319   1.576   3.085 -0.8020  0.3930 -0.6324
  785SOL    HW2 2311   3.182   1.533   3.162 -0.2608 -1.8869 -0.8829
  786SOL     OW 2312   1.227   0.691   1.283  0.0343  0.1946  0.0613
  786SOL    HW1 2313   1.241   0.650   1.193 -0.4397  0.3774 -0.0981
  786SOL    HW2 2314   1.140   0.741   1.284  0.9180  1.7741  0.0525
  787SOL     OW 2315   0.572   2.478   0.569 -0.2288 -0.3866  0.1638
  787SOL    HW1 2316   0.586   2.532   0.652  0.0506 -0.8280  0.4116
  787SOL    HW2 2317   0.553   2.538   0.492 -0.0021  0.0586  0.4525
  788SOL     OW 2318   1.345   2.772   1.399 -0.3258  0.4633  0.1410
  788SOL    HW1 2319   1.304   2.805   1.484  3.2856  2.3717  1.3336
  788SOL    HW2 2320   1.307   2.822   1.322 -2.2543  0.0750  0.7853
  789SOL     OW 2321   0.058   0.088   2.666  0.8380  0.0744  0.4498
  789SOL    HW1 2322   0.080   0.131   2.753 -0.7932 -2.2269  2.1053
  789SOL    HW2 2323   0.016  -0.001   2.682 -0.1457 -0.1549 -2.6926
  790SOL     OW 2324   3.091   0.090   3.030  0.2991  0.2882 -0.0070
  790SOL    HW1 2325   3.135   0.120   3.115  1.4427  0.6781 -0.6993
  790SOL    HW2 2326   3.131   0.141   2.953 -0.1167 -0.6547 -0.8657
  791SOL     OW 2327   0.726   3.555   3.471 -0.4567 -0.8343 -0.1083
  791SOL    HW1 2328   0.677   3.511   3.396 -3.0770  1.5952 -0.0008
  791SOL    HW2 2329   0.693   3.517   3.558 -2.4212  0.8664 -0.0316
  792SOL     OW 2330   2.121   0.147   0.528  0.0456 -0.0233 -0.3007
  792SOL    HW1 2331   2.173   0.224   0.563 -0.2625  0.2696 -0.4829
  792SOL    HW2 2332   2.027   0.151   0.562 -0.3466  0.4439 -1.3972
  793SOL     OW 2333   0.702   1.946   2.724 -0.1979 -0.6251 -0.0619
  793SOL    HW1 2334   0.732   1.924   2.631 -2.5206  1.1299 -1.3489
  793SOL    HW2 2335   0.782   1.964   2.781  1.2950 -1.4751 -1.7681
  794SOL     OW 2336   1.047   2.126   1.587  0.5186  0.1056 -0.1614
  794SOL    HW1 2337   0.950   2.105   1.576  0.6363 -0.9297  0.6251
  794SOL    HW2 2338   1.060   2.177   1.672  0.9036 -1.8041  0.9831
  795SOL     OW 2339   3.456   3.714   2.566 -0.0461 -0.5941  0.0864
  795SOL    HW1 2340   3.452   3.717   2.466  0.1029 -1.4576  0.0517
  795SOL    HW2 2341   3.531   3.655   2.595 -0.7524 -1.2088  0.7070
  796SOL     OW 2342   1.249   2.699   0.430 -0.4929 -0.2810 -0.8603
  796SOL    HW1 2343   1.329   2.672   0.377 -0.3319  1.0963 -1.3572
  796SOL    HW2 2344   1.209   2.782   0.391 -1.0315  0.1409  0.5109
  797SOL     OW 2345   2.548   3.072   1.159 -0.4584  0.3061  0.7234
  797SOL    HW1 2346   2.485   3.004   1.123  0.3784 -1.4642  2.3974
  797SOL    HW2 2347   2.582   3.042   1.248 -0.9759  3.5147  2.1488
  798SOL     OW 2348   0.792   1.369   1.573  0.4914 -0.5894 -0.2895
  798SOL    HW1 2349   0.861   1.438   1.551  1.5050 -1.7922 -1.0192
  798SOL    HW2 2350   0.800   1.292   1.509 -2.2229 -0.3254 -1.0833
  799SOL     OW 2351   2.055   2.383   2.112 -0.1091  0.0132  0.1852
  799SOL    HW1 2352   2.109   2.332   2.045  0.8169  2.6483 -1.2110
  799SOL    HW2 2353   2.114   2.445   2.163 -1.1755 -0.3081  1.8958
  800SOL     OW 2354   0.830   2.945   3.258  0.3628 -0.0218 -0.1668
  800SOL    HW1 2355   0.850   3.012   3.186 -0.0204 -0.3735 -0.6139
  800SOL    HW2 2356   0.811   2.992   3.344  0.6975  0.4147 -0.3310
  801SOL     OW 2357   3.641   1.352   3.563  0.0151  0.6087 -0.2540
  801SOL    HW1 2358   3.717   1.417   3.559  0.7254 -0.1981 -0.1390
  801SOL    HW2 2359   3.561   1.392   3.518  0.4501  1.5337 -0.2406
  802SOL     OW 2360   1.457   2.896   0.208 -0.1109 -0.0597  0.4056
  802SOL    HW1 2361   1.443   2.799   0.187 -1.8230 -0.1530  1.7468
  802SOL    HW2 2362   1.519   2.905   0.286  1.3670  0.0309 -0.7393
  803SOL     OW 2363   0.527   0.535   3.608 -0.4265  0.2298 -0.0112
  803SOL    HW1 2364   0.454   0.502   3.550 -1.0004  0.7710  0.3858
  803SOL    HW2 2365   0.560   0.623   3.574 -0.2682  0.2012  0.0643
  804SOL     OW 2366   1.018   2.953   2.351 -0.0793 -0.5425  1.0960
  804SOL    HW1 2367   1.037   2.896   2.431  0.0602 -0.8407  0.8540
  804SOL    HW2 2368   1.092   3.019   2.339 -0.5698  0.1501  1.7713
  805SOL     OW 2369   3.470   2.955   2.561  0.1912  0.0625  0.3412
  805SOL    HW1 2370   3.473   3.000   2.472  1.1120  0.4446  0.5583
  805SOL    HW2 2371   3.478   2.856   2.548  3.0026  0.2344  0.0978
  806SOL     OW 2372   0.326   0.149   3.673 -0.4617 -0.0192 -0.5103
  806SOL    HW1 2373   0.410   0.202   3.672 -0.9835  1.3635  4.1161
  806SOL    HW2 2374   0.348   0.052   3.664  1.3870  0.4157 -1.1796
  807SOL     OW 2375   0.451   1.156   2.619  0.4313  0.1885 -0.0980
  807SOL    HW1 2376   0.407   1.068   2.634  0.3721  0.0367 -1.0641
  807SOL    HW2 2377   0.390   1.230   2.648 -0.9730  0.0329 -2.4068
  808SOL     OW 2378   1.388   2.626   0.160  0.3348 -0.1329  0.3898
  808SOL    HW1 2379   1.419   2.601   0.068 -0.0930 -1.5364  0.6078
  808SOL    HW2 2380   1.437   2.571   0.227  0.6714  0.9153  1.0304
  809SOL     OW 2381   3.388   1.445   0.341 -0.7269  0.3498  0.1258
  809SOL    HW1 2382   3.457   1.472   0.274 -0.1414  1.0708  0.9953
  809SOL    HW2 2383   3.381   1.345   0.344  1.2840  0.1899  0.9922
  810SOL     OW 2384   0.802   1.599   3.384 -0.1788  0.1971  0.9615
  810SOL    HW1 2385   0.722   1.594   3.324  1.8438  1.8434 -2.1528
  810SOL    HW2 2386   0.851   1.512   3.383 -0.3953  0.0798  0.6011
  811SOL     OW 2387   1.889   3.404   3.644 -0.0925  0.4819  0.4231
  811SOL    HW1 2388   1.916   3.309   3.662 -0.6675  0.5051  1.4772
  811SOL    HW2 2389   1.816   3.430   3.706 -0.3843  1.4252 -0.2922
  812SOL     OW 2390   1.237   3.230   1.226 -0.1241 -0.3679 -0.4533
  812SOL    HW1 2391   1.174   3.176   1.282 -1.4064  0.3913 -1.1139
  812SOL    HW2 2392   1.293   3.288   1.285 -2.1642  1.2019  0.0689
  813SOL     OW 2393   1.630   3.217   3.622 -0.0344  0.3587 -0.1022
  813SOL    HW1 2394   1.659   3.281   3.693  0.1177  0.0193  0.1435
  813SOL    HW2 2395   1.710   3.185   3.571  0.1470 -1.0508  0.9717
  814SOL     OW 2396   0.787   3.071   3.498 -0.5702  0.2865 -0.3181
  814SOL    HW1 2397   0.725   3.150   3.495 -1.4774 -0.3347  1.0572
  814SOL    HW2 2398   0.759   3.009   3.572  2.7176  0.8142  1.5857
  815SOL     OW 2399   1.168   2.444   3.575  0.2104 -0.3005 -0.1283
  815SOL    HW1 2400   1.188   2.519   3.638  0.2966 -0.6482  0.2678
  815SOL    HW2 2401   1.226   2.365   3.598  1.2655  0.0215 -1.5258
  816SOL     OW 2402   1.265   3.245   0.135 -0.1686  0.6766  0.0217
  816SOL    HW1 2403   1.301   3.205   0.051  1.1236  1.1385  0.3406
  816SOL    HW2 2404   1.306   3.200   0.214 -1.2932  0.3191  0.4252
  817SOL     OW 2405   0.749   1.543   2.210  0.1141  0.2624  0.2850
  817SOL    HW1 2406   0.817   1.616   2.222  0.8195 -0.4602  0.7482
  817SOL    HW2 2407   0.683   1.547   2.285  0.2283  0.3381  0.3827
  818SOL     OW 2408   0.276   1.953   0.369 -0.0957 -0.0543 -0.0181
  818SOL    HW1 2409   0.303   1.908   0.454 -0.6724 -1.3701 -0.5049
  818SOL    HW2 2410   0.263   2.051   0.385  1.0061 -0.0723  1.1144
  819SOL     OW 2411   1.395   3.519   3.161 -0.1261  0.2466 -0.0926
  819SOL    HW1 2412   1.332   3.580   3.209  1.7170  1.5821  0.7510
  819SOL    HW2 2413   1.422   3.445   3.222  1.0051  1.0685  0.4334
  820SOL     OW 2414   1.162   2.566   2.080 -0.0943  0.3389  0.1123
  820SOL    HW1 2415   1.252   2.570   2.124 -0.5092  0.3552  0.9864
  820SOL    HW2 2416   1.126   2.472   2.087 -0.0877  0.2984 -0.3601
  821SOL     OW 2417   1.965   2.886   3.561  0.1566 -0.1036 -0.1142
  821SOL    HW1 2418   2.047   2.888   3.619  0.4911  2.1558 -0.5537
  821SOL    HW2 2419   1.992   2.864   3.467  0.3028  0.7351 -0.2781
  822SOL     OW 2420   1.600   3.413   2.211 -0.4465 -0.0533 -0.1288
  822SOL    HW1 2421   1.595   3.482   2.283 -1.1801 -1.0380  0.8156
  822SOL    HW2 2422   1.519   3.421   2.152 -0.5376 -0.1095 -0.0123
  823SOL     OW 2423   1.509   3.292   3.304 -0.0892 -0.1253 -0.0896
  823SOL    HW1 2424   1.589   3.234   3.289 -0.2412 -0.6292  0.9759
  823SOL    HW2 2425   1.428   3.234   3.315 -0.3022  0.2967  0.6354
  824SOL     OW 2426   0.775   1.936   3.254  0.3014 -0.2713  0.3526
  824SOL    HW1 2427   0.844   1.920   3.183 -0.1027 -0.6724  0.0470
  824SOL    HW2 2428   0.723   1.852   3.269 -0.4861  0.1842  0.1918
  825SOL     OW 2429   1.579   2.570   1.947  0.2839 -0.3277 -0.4224
  825SOL    HW1 2430   1.591   2.647   1.884 -0.2232  3.1808  3.3350
  825SOL    HW2 2431   1.668   2.533   1.973  0.9086  1.7960  0.6948
  826SOL     OW 2432   0.306   3.617   1.433  0.9932  0.2207  0.6480
  826SOL    HW1 2433   0.394   3.642   1.394 -0.1159  0.2569 -2.0479
  826SOL    HW2 2434   0.237   3.612   1.361 -1.3945  0.8221  2.7105
  827SOL     OW 2435   3.077   3.625   3.650  0.3691 -0.7643 -0.3401
  827SOL    HW1 2436   3.002   3.677   3.608  0.9658 -0.5069 -1.1030
  827SOL    HW2 2437   3.067   3.628   3.750 -0.5305 -0.5814 -0.4215
  828SOL     OW 2438   1.046   2.288   1.824 -0.6457 -0.0634  0.0071
  828SOL    HW1 2439   1.049   2.303   1.923  0.8447  0.3939 -0.0797
  828SOL    HW2 2440   0.986   2.356   1.782 -0.6886  0.2216  0.5204
  829SOL     OW 2441   1.633   2.568   3.390  0.5363  0.2050 -0.1130
  829SOL    HW1 2442   1.712   2.522   3.431  0.9553 -0.3104 -1.4488
  829SOL    HW2 2443   1.662   2.613   3.306 -0.8005 -0.9050 -1.2028
  830SOL     OW 2444   1.804   3.293   2.098 -0.4453  0.4754 -0.0268
  830SOL    HW1 2445   1.740   3.336   2.162  1.5423  2.2728  0.9014
  830SOL    HW2 2446   1.783   3.322   2.005 -0.9121  1.1317  0.2708
  831SOL     OW 2447   2.167   0.131   2.090  0.0563  0.9727 -0.2063
  831SOL    HW1 2448   2.139   0.061   2.156 -2.5440  1.8612 -0.2633
  831SOL    HW2 2449   2.247   0.098   2.039 -1.3617 -2.2021 -0.6187
  832SOL     OW 2450   2.137   2.298   2.853 -0.9095  0.0619 -0.8469
  832SOL    HW1 2451   2.055   2.341   2.893 -0.7652  0.6382 -1.1636
  832SOL    HW2 2452   2.137   2.200   2.875 -0.8151  0.3616  0.6125
  833SOL     OW 2453   0.011   1.402   2.146  0.5000  0.2886 -0.1041
  833SOL    HW1 2454   0.110   1.399   2.154  0.4310 -1.1768  0.5336
  833SOL    HW2 2455  -0.027   1.466   2.212  1.0291  1.0887 -0.5648
  834SOL     OW 2456   3.229   2.322   2.523  0.1375  0.1060 -0.8098
  834SOL    HW1 2457   3.271   2.243   2.568 -0.7318 -0.4871 -1.0207
  834SOL    HW2 2458   3.151   2.292   2.469 -0.9487  1.2602  0.0622
  835SOL     OW 2459   1.554   2.845   3.505  0.3559 -0.3177  0.3267
  835SOL    HW1 2460   1.456   2.864   3.514  0.4563  0.8099 -0.5961
  835SOL    HW2 2461   1.567   2.764   3.447 -0.0307  0.8444 -1.4633
  836SOL     OW 2462   0.459   3.479   2.952 -0.4762  0.4959 -0.3084
  836SOL    HW1 2463   0.520   3.486   2.873 -1.3866  1.2958 -0.9700
  836SOL    HW2 2464   0.365   3.470   2.921 -0.6422 -2.4058  0.6570
  837SOL     OW 2465   1.496   3.648   1.964 -0.2557 -0.3219  0.2397
  837SOL    HW1 2466   1.444   3.686   1.887  1.8862 -0.6148 -1.4539
  837SOL    HW2 2467   1.458   3.559   1.989 -2.4107  0.7763  1.1176
  838SOL     OW 2468   2.959   1.399   3.035  0.7925  0.1614  0.9875
  838SOL    HW1 2469   3.027   1.354   3.092 -0.2209 -0.1840  1.9640
  838SOL    HW2 2470   2.992   1.489   3.008  1.5268  0.0966  1.6387
  839SOL     OW 2471   2.335   0.549   2.671 -0.3118  0.3531 -0.2014
  839SOL    HW1 2472   2.283   0.581   2.751 -1.0084 -0.4599 -0.3098
  839SOL    HW2 2473   2.415   0.498   2.701 -1.3644 -1.2317  0.0269
  840SOL     OW 2474   1.989   3.486   1.575 -0.6405 -0.6548 -0.6701
  840SOL    HW1 2475   2.003   3.388   1.562  0.2640 -0.6951  0.4376
  840SOL    HW2 2476   2.052   3.537   1.518  0.7109 -0.7768  0.6524
  841SOL     OW 2477   0.745   2.854   1.815 -0.0453 -1.0182  0.0147
  841SOL    HW1 2478   0.657   2.812   1.838  0.1751 -1.3222  0.3102
  841SOL    HW2 2479   0.819   2.797   1.851  0.2530  0.1221  1.2834
  842SOL     OW 2480   0.424   2.910   2.711  0.7407  0.1289  0.7541
  842SOL    HW1 2481   0.381   2.835   2.661  0.7722  0.3363  0.4090
  842SOL    HW2 2482   0.396   2.908   2.807  0.8799 -0.4301  0.7886
  843SOL     OW 2483   1.823   2.169   3.456  0.3909  0.3202  0.3488
  843SOL    HW1 2484   1.902   2.116   3.425 -1.0110 -2.2548  0.9543
  843SOL    HW2 2485   1.758   2.180   3.380 -0.0087 -0.1598  0.6184
  844SOL     OW 2486   1.105   3.313   2.499 -0.6340  0.1225  0.0796
  844SOL    HW1 2487   1.097   3.215   2.513  0.1459 -0.1286 -1.0299
  844SOL    HW2 2488   1.178   3.350   2.557 -0.3700 -0.1070 -0.1049
  845SOL     OW 2489   0.611   2.182   3.515 -0.0753 -0.2418 -0.2190
  845SOL    HW1 2490   0.668   2.100   3.521  0.1984 -0.0588 -0.3160
  845SOL    HW2 2491   0.525   2.166   3.563  0.4827 -0.1606  0.8457
  846SOL     OW 2492   1.476   1.333   3.660  0.3706 -0.1904 -0.2052
  846SOL    HW1 2493   1.466   1.419   3.610  2.1999  0.9287  1.2248
  846SOL    HW2 2494   1.491   1.258   3.596  0.8562  0.8960 -1.4059
  847SOL     OW 2495   0.951   2.430   1.148 -0.1541  0.1948  0.0865
  847SOL    HW1 2496   1.008   2.381   1.213 -0.9304 -0.9934 -0.0864
  847SOL    HW2 2497   0.857   2.395   1.153 -0.2006 -0.0433 -1.7662
  848SOL     OW 2498   2.116   3.096   3.263  0.2277 -0.4189  0.1802
  848SOL    HW1 2499   2.122   3.072   3.166  1.1248 -0.8263  0.3312
  848SOL    HW2 2500   2.157   3.024   3.318  0.6114  0.2676  0.8080
  849SOL     OW 2501   3.611   2.888   3.292 -0.3541 -0.5391 -0.0326
  849SOL    HW1 2502   3.512   2.877   3.283 -0.3619 -1.5371  1.0687
  849SOL    HW2 2503   3.655   2.853   3.210 -0.9165  0.3428 -0.7388
  850SOL     OW 2504   2.403   2.412   2.121 -0.2534 -0.0305  0.4652
  850SOL    HW1 2505   2.393   2.464   2.036  1.0232 -0.7897 -0.1891
  850SOL    HW2 2506   2.379   2.470   2.198  0.4216  1.3131 -0.2847
  851SOL     OW 2507   0.884   2.997   0.145  0.2917 -0.1305  0.5478
  851SOL    HW1 2508   0.798   2.998   0.094 -0.3088 -0.7389  1.5325
  851SOL    HW2 2509   0.901   3.087   0.185  0.5807  0.2448 -0.3898
  852SOL     OW 2510   0.009   2.455   1.626  0.2499 -0.2189 -0.1550
  852SOL    HW1 2511   0.087   2.418   1.676  0.1853  0.8949  0.8342
  852SOL    HW2 2512   0.039   2.528   1.565 -0.1733  1.4633  1.5488
  853SOL     OW 2513   0.360   1.565   0.394  0.1544 -0.0014  0.1431
  853SOL    HW1 2514   0.432   1.553   0.326 -0.4195  0.2077 -0.5162
  853SOL    HW2 2515   0.274   1.529   0.359  0.1549 -1.3070  1.3772
  854SOL     OW 2516   1.571   2.413   1.009 -0.5538 -0.1007 -0.2056
  854SOL    HW1 2517   1.490   2.381   0.959 -1.1904  1.5163 -0.2736
  854SOL    HW2 2518   1.542   2.459   1.093  0.1727  1.7782 -0.9276
  855SOL     OW 2519   3.438   3.573   0.279 -0.4279 -0.1918 -0.2416
  855SOL    HW1 2520   3.364   3.639   0.267  0.2579  0.8069  0.7578
  855SOL    HW2 2521   3.517   3.619   0.322 -0.2641 -1.8486  1.3585
  856SOL     OW 2522   1.839   2.987   2.125  0.0225  0.0779  0.0632
  856SOL    HW1 2523   1.834   3.086   2.114 -1.1893 -0.0509 -0.8243
  856SOL    HW2 2524   1.813   2.943   2.039  1.2469 -1.0221  0.2118
  857SOL     OW 2525   0.487   0.744   1.497 -0.3043  0.4160  0.2320
  857SOL    HW1 2526   0.509   0.646   1.491  0.0768  0.4778  0.6461
  857SOL    HW2 2527   0.554   0.790   1.553 -0.2418  0.9987 -0.3092
  858SOL     OW 2528   0.920   2.090   2.786 -0.3563  0.0903 -0.1015
  858SOL    HW1 2529   0.842   2.153   2.787  1.3507  2.3527 -0.5104
  858SOL    HW2 2530   0.976   2.106   2.704 -0.0976 -2.3600 -0.4785
  859SOL     OW 2531   1.029   2.994   0.594 -0.4101 -0.1623 -0.1465
  859SOL    HW1 2532   0.964   2.924   0.623  2.4843 -2.1923  2.0491
  859SOL    HW2 2533   1.012   3.079   0.644 -1.0363 -0.8630  0.8728
  860SOL     OW 2534   1.545   2.932   2.456  0.2433 -0.3599 -0.1804
  860SOL    HW1 2535   1.580   3.004   2.396 -1.9289 -1.2068 -2.6378
  860SOL    HW2 2536   1.454   2.904   2.426 -0.1738 -2.2236  2.4152
  861SOL     OW 2537   0.225   3.017   2.118  0.1220  0.0159 -0.6296
  861SOL    HW1 2538   0.159   2.952   2.156  0.2047 -1.4257 -2.7960
  861SOL    HW2 2539   0.189   3.054   2.033  0.1273  2.8364  0.5015
  862SOL     OW 2540   2.532   3.663   3.125  0.0374 -0.3021 -0.6967
  862SOL    HW1 2541   2.435   3.639   3.114 -0.2202 -0.6615  1.8160
  862SOL    HW2 2542   2.577   3.596   3.184  0.9543  1.6900  1.0089
  863SOL     OW 2543   2.089   2.548   2.621 -0.1780  0.0693  0.3958
  863SOL    HW1 2544   2.041   2.460   2.627  2.2238 -1.3995 -0.5801
  863SOL    HW2 2545   2.080   2.584   2.528  0.3704 -0.0761  0.2864
  864SOL     OW 2546   0.235   2.406   1.776 -0.0488 -0.0350  0.6152
  864SOL    HW1 2547   0.220   2.338   1.847  0.9861  0.2698  1.1465
  864SOL    HW2 2548   0.323   2.389   1.732 -0.4433  0.0908 -0.2603
  865SOL     OW 2549   1.509   3.505   3.526  0.1621  0.0775 -0.4447
  865SOL    HW1 2550   1.518   3.418   3.479  0.3094 -0.4438  0.5224
  865SOL    HW2 2551   1.482   3.489   3.622  0.8794  1.0518 -0.0602
  866SOL     OW 2552   1.341   3.038   3.039 -0.1385  0.6787 -0.3254
  866SOL    HW1 2553   1.273   2.967   3.024 -0.5204  1.0065 -0.1373
  866SOL    HW2 2554   1.430   3.006   3.005 -0.4036  0.2959 -0.6677
  867SOL     OW 2555   1.093   2.408   0.328 -0.2837 -0.2861  0.0714
  867SOL    HW1 2556   1.010   2.400   0.273 -0.1682  1.1497 -0.3453
  867SOL    HW2 2557   1.124   2.503   0.329 -0.0686 -0.3139  2.3307
  868SOL     OW 2558   1.323   0.037   3.501 -0.2445  0.3149 -0.1712
  868SOL    HW1 2559   1.268   0.024   3.584  0.0207  1.1446  0.1517
  868SOL    HW2 2560   1.393  -0.034   3.496 -2.0276 -1.4721 -1.1949
  869SOL     OW 2561   1.815   1.248   2.386  0.1713 -0.4690  0.6157
  869SOL    HW1 2562   1.856   1.163   2.417 -1.0815 -2.1455 -1.9841
  869SOL    HW2 2563   1.725   1.260   2.428  0.5804 -0.0942  1.4100
  870SOL     OW 2564   0.284   0.443   2.550  0.4971 -0.2808 -0.0746
  870SOL    HW1 2565   0.329   0.463   2.463 -0.2946  2.8613  0.1431
  870SOL    HW2 2566   0.199   0.393   2.532  1.3924 -1.5819 -0.8869
  871SOL     OW 2567   1.945   2.557   1.796 -0.3304 -0.5034  0.1403
  871SOL    HW1 2568   1.912   2.642   1.755 -0.7757 -1.2210 -1.0243
  871SOL    HW2 2569   2.044   2.560   1.803 -0.1945 -0.5356 -1.4224
  872SOL     OW 2570   0.802   1.236   0.805 -0.6057  0.4711  0.8030
  872SOL    HW1 2571   0.847   1.149   0.789  0.4135  1.3524 -1.7178
  872SOL    HW2 2572   0.703   1.222   0.811 -0.6595 -0.7200 -1.5525
  873SOL     OW 2573   2.217   3.200   2.031  0.0884 -0.2952  0.1529
  873SOL    HW1 2574   2.205   3.275   1.966  0.4748 -0.9020 -0.6378
  873SOL    HW2 2575   2.314   3.179   2.041 -0.0180 -0.7087  0.3547
  874SOL     OW 2576   1.075   2.164   2.550  0.1242 -0.0759  0.2908
  874SOL    HW1 2577   1.061   2.121   2.460  0.5802  0.5385 -0.0830
  874SOL    HW2 2578   1.160   2.130   2.590  1.8412  2.2674 -1.1272
  875SOL     OW 2579   3.105   1.235   2.289  0.5441 -0.2363 -0.3890
  875SOL    HW1 2580   3.051   1.240   2.205  0.4537 -0.0033 -0.3172
  875SOL    HW2 2581   3.063   1.293   2.359  0.1874 -1.0110  0.0576
  876SOL     OW 2582   0.094   2.068   1.213 -0.1535  0.1442 -0.0482
  876SOL    HW1 2583   0.129   2.049   1.122 -0.0611  2.1478 -0.4847
  876SOL    HW2 2584   0.141   2.149   1.250 -2.8785  1.7572  0.1315
  877SOL     OW 2585   0.089   3.500   2.429  0.5995 -0.1629 -0.0135
  877SOL    HW1 2586   0.039   3.422   2.392  0.5645  0.0951 -0.5226
  877SOL    HW2 2587   0.187   3.480   2.429  0.6369 -0.0178 -0.6329
  878SOL     OW 2588   0.564   2.457   2.135 -0.1900 -0.1364  0.0222
  878SOL    HW1 2589   0.484   2.404   2.163  0.4198 -0.7800  0.5681
  878SOL    HW2 2590   0.617   2.484   2.216  0.0858  0.3777 -0.3254
  879SOL     OW 2591   1.273   2.365   3.082  0.4451 -0.5213  0.0989
  879SOL    HW1 2592   1.256   2.444   3.141  2.3489  0.3359 -0.4534
  879SOL    HW2 2593   1.193   2.304   3.086 -0.3316  0.5143  1.9249
  880SOL     OW 2594   1.475   1.439   2.692 -0.4502  0.0298  0.1669
  880SOL    HW1 2595   1.489   1.481   2.602  0.4928 -1.2815 -0.3428
  880SOL    HW2 2596   1.489   1.507   2.763  0.5112  0.7111 -0.6380
  881SOL     OW 2597   0.487   0.480   3.015 -0.3104 -0.2810  0.6470
  881SOL    HW1 2598   0.458   0.415   2.945 -1.8740  0.0245  0.9714
  881SOL    HW2 2599   0.510   0.431   3.099  0.5983 -0.5675  0.2405
  882SOL     OW 2600  -0.010   3.692   2.212  0.0382 -0.0493  0.5973
  882SOL    HW1 2601   0.000   3.635   2.293 -0.8054 -0.0426  0.7129
  882SOL    HW2 2602   0.060   3.764   2.212  2.2460 -2.0473 -0.3983
  883SOL     OW 2603   0.061   2.798   3.081 -0.5458 -0.2900  0.1024
  883SOL    HW1 2604   0.138   2.754   3.128 -1.3238 -0.1610  1.5655
  883SOL    HW2 2605   0.073   2.790   2.982  1.1479 -0.6013  0.3029
  884SOL     OW 2606   2.391   3.729   1.974 -0.3598  0.1290  0.5676
  884SOL    HW1 2607   2.486   3.758   1.991 -0.0751 -1.0107  0.9873
  884SOL    HW2 2608   2.383   3.631   1.989 -1.1019 -0.2031 -1.6410
  885SOL     OW 2609   0.906   1.043   1.078 -0.0308  0.4638 -0.3874
  885SOL    HW1 2610   0.974   1.063   1.148  0.8427 -1.0588 -0.7656
  885SOL    HW2 2611   0.820   1.090   1.101  0.7465  1.4043  0.7502
  886SOL     OW 2612   2.083   0.511   0.300 -0.2735  0.0441 -0.1131
  886SOL    HW1 2613   2.172   0.526   0.343  0.1150  0.1054 -0.9223
  886SOL    HW2 2614   2.088   0.431   0.240 -0.8056 -0.0419 -0.0511
  887SOL     OW 2615   1.873   0.979   2.432 -0.0091 -0.5716 -0.4948
  887SOL    HW1 2616   1.954   0.959   2.486  0.6364  1.9073 -0.4434
  887SOL    HW2 2617   1.813   0.899   2.431  0.7778 -1.3111  2.3711
  888SOL     OW 2618   2.074   1.200   1.063 -0.1179  0.3255  0.5161
  888SOL    HW1 2619   2.072   1.105   1.032  2.4693  0.4623 -0.3460
  888SOL    HW2 2620   1.999   1.217   1.127 -1.1420 -2.0385  0.0195
  889SOL     OW 2621   0.873   1.369   2.637 -0.4641 -0.1350 -0.0671
  889SOL    HW1 2622   0.940   1.389   2.565  1.4225  0.1664  1.6777
  889SOL    HW2 2623   0.792   1.327   2.596 -0.3539  1.8584 -2.6140
  890SOL     OW 2624   3.557   0.823   1.285  0.0933 -0.2375 -0.0115
  890SOL    HW1 2625   3.526   0.830   1.380  0.6349 -0.7251  0.2084
  890SOL    HW2 2626   3.532   0.906   1.235 -2.0031 -0.7838  0.0197
  891SOL     OW 2627   2.350   1.320   1.851 -0.1461 -0.0258  0.3464
  891SOL    HW1 2628   2.357   1.236   1.798  2.0093  1.0185 -1.1849
  891SOL    HW2 2629   2.283   1.381   1.809  1.8929  0.9925 -1.6166
  892SOL     OW 2630   3.013   1.301   1.683 -0.1428  0.1661  0.7135
  892SOL    HW1 2631   3.054   1.285   1.593  0.5104 -0.5194  1.1252
  892SOL    HW2 2632   2.917   1.273   1.681  0.1948 -1.0474  0.5726
  893SOL     OW 2633   1.940   0.652   0.976 -0.3238 -0.5877  0.2837
  893SOL    HW1 2634   1.993   0.650   0.891 -0.5225  1.0504  0.0782
  893SOL    HW2 2635   1.843   0.636   0.955 -0.3774 -0.1521  0.1840
  894SOL     OW 2636   3.643   1.804   2.851  0.5714 -0.5034 -0.3527
  894SOL    HW1 2637   3.631   1.883   2.792 -1.1751 -0.7687 -0.4054
  894SOL    HW2 2638   3.737   1.770   2.843  1.5323  1.8602  0.0996
  895SOL     OW 2639   1.596   1.920   0.891 -0.1554  0.2260  0.1566
  895SOL    HW1 2640   1.510   1.871   0.881  0.0176  0.2009 -1.5480
  895SOL    HW2 2641   1.596   2.002   0.833  1.2232 -0.1589 -0.4442
  896SOL     OW 2642   3.680   1.901   2.078  0.3002  0.0557  0.7062
  896SOL    HW1 2643   3.673   2.001   2.067 -0.1630  0.1525  1.8140
  896SOL    HW2 2644   3.764   1.869   2.033 -1.3173  0.4074 -2.9257
  897SOL     OW 2645   2.308   0.316   2.255  0.4214 -0.4936 -0.1374
  897SOL    HW1 2646   2.249   0.256   2.201  0.8048 -2.2127  1.2783
  897SOL    HW2 2647   2.349   0.385   2.195 -3.3485  1.1556 -1.1087
  898SOL     OW 2648   0.204   0.664   0.359 -0.0121 -0.3730 -0.2331
  898SOL    HW1 2649   0.195   0.574   0.317 -0.0404 -1.2104  1.4836
  898SOL    HW2 2650   0.219   0.733   0.288  1.8085 -1.9550 -1.4636
  899SOL     OW 2651   1.656   1.528   0.701  0.1901  0.7548 -0.3062
  899SOL    HW1 2652   1.713   1.500   0.624  2.4329  1.5206  0.9910
  899SOL    HW2 2653   1.664   1.462   0.776 -0.0221  1.2635  0.1776
  900SOL     OW 2654   3.094   1.258   1.425 -0.1589 -0.0307 -0.4898
  900SOL    HW1 2655   3.119   1.167   1.392 -1.3172  0.3598 -2.5961
  900SOL    HW2 2656   3.134   1.328   1.366  2.1950  0.9952  2.1084
  901SOL     OW 2657   1.514   1.123   1.503  0.0661 -0.5569  0.3094
  901SOL    HW1 2658   1.531   1.075   1.590 -0.8333  0.3735  1.0282
  901SOL    HW2 2659   1.416   1.122   1.483  0.0214  0.9161  0.3366
  902SOL     OW 2660   0.968   0.816   1.240  0.3093  0.0962 -0.1872
  902SOL    HW1 2661   0.915   0.865   1.171 -0.4828 -0.5154 -0.0213
  902SOL    HW2 2662   0.934   0.723   1.249  0.9335 -0.0831  0.4567
  903SOL     OW 2663   3.377   1.172   0.313 -0.8837  0.2934 -0.0075
  903SOL    HW1 2664   3.338   1.142   0.226  0.9817 -1.4808 -0.3226
  903SOL    HW2 2665   3.418   1.094   0.360  3.3038  2.0282 -0.3136
  904SOL     OW 2666   2.214   0.810   0.829 -0.2778 -0.1914 -0.1867
  904SOL    HW1 2667   2.275   0.813   0.750 -0.9701  0.0063 -0.7283
  904SOL    HW2 2668   2.195   0.903   0.861 -0.1667 -0.2601  0.0859
  905SOL     OW 2669   3.118   2.496   2.256  0.0595  0.3641  0.2120
  905SOL    HW1 2670   3.217   2.509   2.247 -0.0458  0.3880 -1.1806
  905SOL    HW2 2671   3.098   2.400   2.275  0.2948  0.0213 -1.1436
  906SOL     OW 2672   2.037   0.350   0.079  0.2266  0.1589 -0.5613
  906SOL    HW1 2673   2.093   0.334  -0.003  0.1299  0.5984 -0.7171
  906SOL    HW2 2674   1.978   0.271   0.095 -1.0652  0.7856 -1.9699
  907SOL     OW 2675   3.294   2.419   3.660  0.5396  0.0959  0.6401
  907SOL    HW1 2676   3.282   2.481   3.738  0.5906 -0.4242  1.0634
  907SOL    HW2 2677   3.312   2.326   3.693  0.6442 -0.1136  0.0084
  908SOL     OW 2678   2.520   0.609   3.421 -0.3450  1.0649  0.5936
  908SOL    HW1 2679   2.594   0.665   3.386 -0.8315  0.7059 -1.0807
  908SOL    HW2 2680   2.557   0.525   3.460  0.1928  1.4284  0.8826
  909SOL     OW 2681   0.436   1.482   1.689  0.2551 -0.1595 -0.2120
  909SOL    HW1 2682   0.477   1.391   1.682 -0.9289 -0.6817 -0.4265
  909SOL    HW2 2683   0.481   1.543   1.624  1.4574 -0.4268  0.3417
  910SOL     OW 2684   2.988   1.022   3.369 -0.0790 -0.0068 -0.7884
  910SOL    HW1 2685   2.897   1.037   3.407  0.2437 -0.5583  0.2392
  910SOL    HW2 2686   3.000   1.078   3.287 -0.4423  2.0122  0.4706
  911SOL     OW 2687   1.982   0.458   0.643 -0.3550 -0.0804  0.5619
  911SOL    HW1 2688   1.909   0.415   0.589 -0.4553  0.3143  0.3807
  911SOL    HW2 2689   1.966   0.556   0.647  1.3759  0.3517 -1.3787
  912SOL     OW 2690   1.682   1.736   0.460  0.2606  0.5685  0.6468
  912SOL    HW1 2691   1.611   1.769   0.523 -0.2445 -0.3741  0.5939
  912SOL    HW2 2692   1.760   1.702   0.513 -1.0498 -2.2896  0.9565
  913SOL     OW 2693   3.055   0.857   1.914  0.2435  0.4303  0.0774
  913SOL    HW1 2694   3.022   0.802   1.837 -0.0845  0.5168  0.1573
  913SOL    HW2 2695   3.097   0.796   1.982 -0.9044  0.1636  0.5772
  914SOL     OW 2696   2.149   3.614   0.804  0.1503 -0.0116 -0.0874
  914SOL    HW1 2697   2.168   3.517   0.790 -0.9681 -0.2978  0.3182
  914SOL    HW2 2698   2.172   3.665   0.721 -0.6864 -0.8374 -0.8492
  915SOL     OW 2699   2.533   1.338   2.430  0.2582 -0.0824  0.9075
  915SOL    HW1 2700   2.542   1.349   2.331  1.3803  1.1272  1.1271
  915SOL    HW2 2701   2.541   1.427   2.475  1.2202 -0.7846  2.1918
  916SOL     OW 2702   3.041   0.979   0.212 -0.1248  0.0864 -0.0422
  916SOL    HW1 2703   3.055   0.880   0.223 -0.7368  0.1385  1.5541
  916SOL    HW2 2704   3.119   1.019   0.165  0.8159 -0.9577  0.5824
  917SOL     OW 2705   2.482   2.117   0.327 -0.2814  0.1455  0.1044
  917SOL    HW1 2706   2.555   2.171   0.285  2.2318 -0.7204  2.9095
  917SOL    HW2 2707   2.413   2.178   0.365 -0.7488  1.0321 -2.0305
  918SOL     OW 2708   1.569   0.391   1.538  0.0670  0.3922  0.2459
  918SOL    HW1 2709   1.586   0.326   1.612 -1.2461  1.1257  1.2622
  918SOL    HW2 2710   1.584   0.484   1.572 -0.8738  0.7571 -0.2962
  919SOL     OW 2711   0.493   1.970   0.180 -0.4064  0.0922  0.6862
  919SOL    HW1 2712   0.436   1.967   0.262 -1.9071  0.0612 -0.3256
  919SOL    HW2 2713   0.479   1.886   0.126 -1.2825  1.1099 -0.7600
  920SOL     OW 2714   0.053   1.958   0.222 -0.0361  0.1749 -0.6419
  920SOL    HW1 2715   0.037   2.056   0.207  0.4626  0.1437 -1.4234
  920SOL    HW2 2716   0.137   1.945   0.274 -0.8680  0.2051  0.7824
  921SOL     OW 2717   2.677   3.172   3.423  0.0169 -0.4716 -0.2679
  921SOL    HW1 2718   2.636   3.249   3.471  0.6365  0.6925 -1.5268
  921SOL    HW2 2719   2.653   3.177   3.326  0.2227 -1.7776 -0.4045
  922SOL     OW 2720   2.306   3.345   3.451  0.0311  0.3747 -0.1136
  922SOL    HW1 2721   2.237   3.367   3.382  1.2555  0.6713 -1.2641
  922SOL    HW2 2722   2.378   3.414   3.450  2.1132 -1.6535 -1.3366
  923SOL     OW 2723   2.062   2.561   3.344 -0.1687  0.5763  0.2160
  923SOL    HW1 2724   2.041   2.650   3.304  0.8058  1.2450  1.1334
  923SOL    HW2 2725   1.984   2.530   3.399 -0.9866  0.2723 -1.0772
  924SOL     OW 2726   3.367   0.789   0.208 -0.2867  0.4697  0.0260
  924SOL    HW1 2727   3.433   0.756   0.275  0.7158 -0.6161 -1.4327
  924SOL    HW2 2728   3.275   0.779   0.244  0.2313  0.1430  1.3237
  925SOL     OW 2729   3.023   0.357   1.254  0.1882  0.1192  0.6915
  925SOL    HW1 2730   2.983   0.364   1.162 -3.7048 -3.2422  1.8952
  925SOL    HW2 2731   3.021   0.447   1.297 -0.1908  1.2960 -1.5922
  926SOL     OW 2732   2.758   1.008   1.509  0.3022 -0.2507  0.2393
  926SOL    HW1 2733   2.806   1.041   1.427  0.7571 -1.8999 -0.1947
  926SOL    HW2 2734   2.771   1.073   1.584 -0.2936  1.4003 -1.0263
  927SOL     OW 2735   2.992   3.430   1.773  0.2985 -0.2971  0.0409
  927SOL    HW1 2736   2.904   3.386   1.793  0.2272 -0.0440  0.2853
  927SOL    HW2 2737   3.046   3.370   1.714  1.0231 -1.5964  1.9418
  928SOL     OW 2738   3.159   1.224   2.789  0.0861 -0.2230 -0.3983
  928SOL    HW1 2739   3.223   1.215   2.866 -0.1139  0.7312 -0.1082
  928SOL    HW2 2740   3.153   1.137   2.740  0.5972 -0.6981  0.3686
  929SOL     OW 2741   1.389   1.355   0.216 -0.2699 -0.0929  0.1665
  929SOL    HW1 2742   1.432   1.444   0.230 -1.1246  0.4363 -0.4842
  929SOL    HW2 2743   1.410   1.322   0.124  0.0498 -0.5780  0.4079
  930SOL     OW 2744   1.748   3.223   0.646 -0.1935 -0.2330 -0.5348
  930SOL    HW1 2745   1.741   3.322   0.657 -0.8328 -0.2937 -0.3568
  930SOL    HW2 2746   1.697   3.194   0.565  0.2117 -0.3880 -0.7371
  931SOL     OW 2747   2.771   3.556   1.284 -0.1962  0.2424 -0.8566
  931SOL    HW1 2748   2.676   3.579   1.260 -0.3808  0.5253  0.1259
  931SOL    HW2 2749   2.792   3.589   1.376  1.2832  1.3895 -1.5572
  932SOL     OW 2750   0.862   3.524   0.102  0.0541  0.0563 -0.5241
  932SOL    HW1 2751   0.925   3.490   0.032  0.4635 -0.5059  0.1061
  932SOL    HW2 2752   0.906   3.599   0.152  0.5151 -0.7906  0.3747
  933SOL     OW 2753   1.829   2.550   0.056 -0.0707  0.2128 -0.4477
  933SOL    HW1 2754   1.869   2.572   0.145  1.6114 -0.7083 -0.9433
  933SOL    HW2 2755   1.778   2.630   0.022  2.6874  2.0682 -0.5056
  934SOL     OW 2756   2.879   1.582   0.199  0.5259  0.2435 -0.5106
  934SOL    HW1 2757   2.902   1.526   0.119 -1.1562 -2.0435  0.5255
  934SOL    HW2 2758   2.911   1.538   0.282 -1.4775  0.4037  0.4025
  935SOL     OW 2759   2.760   1.113   3.451  0.6163  0.3892  0.2971
  935SOL    HW1 2760   2.783   1.210   3.464 -0.6236  0.9013 -1.1214
  935SOL    HW2 2761   2.676   1.092   3.501  0.1737  0.3749 -0.4534
  936SOL     OW 2762   3.638   0.704   0.731 -0.1971 -0.0050 -0.0623
  936SOL    HW1 2763   3.574   0.640   0.774 -2.0752  1.5080 -0.5361
  936SOL    HW2 2764   3.702   0.653   0.673 -0.6546 -1.5847  0.7662
  937SOL     OW 2765   2.198   1.913   0.853 -0.1125 -0.0918  0.1678
  937SOL    HW1 2766   2.174   1.818   0.873 -0.1913  0.0982  1.0248
  937SOL    HW2 2767   2.197   1.928   0.755 -0.1151 -0.9758  0.0288
  938SOL     OW 2768   1.575   0.256   0.877 -0.1715  0.7170  0.0324
  938SOL    HW1 2769   1.565   0.157   0.891  0.5845  0.2964 -1.9614
  938SOL    HW2 2770   1.672   0.279   0.875 -0.2683  1.1052 -1.5997
  939SOL     OW 2771   3.392   0.534   0.128  0.4652 -0.0065  0.2414
  939SOL    HW1 2772   3.358   0.626   0.145  0.7248 -0.0580  1.0880
  939SOL    HW2 2773   3.391   0.481   0.213  1.2317 -0.4779 -0.0266
  940SOL     OW 2774   3.020   2.796   3.503  0.4142  0.7497 -0.5158
  940SOL    HW1 2775   2.991   2.851   3.424  0.6246  0.8764 -0.5060
  940SOL    HW2 2776   2.989   2.702   3.492 -0.8401  1.0873 -0.0561
  941SOL     OW 2777   2.512   2.893   1.728 -0.0892  0.2469 -0.9082
  941SOL    HW1 2778   2.533   2.874   1.823 -0.6380  1.1595 -0.5903
  941SOL    HW2 2779   2.525   2.991   1.710  0.1511  0.0648 -1.8091
  942SOL     OW 2780   0.300   2.360   3.266 -0.1753 -1.0046 -0.0593
  942SOL    HW1 2781   0.285   2.261   3.262 -0.0651 -0.9781 -1.3325
  942SOL    HW2 2782   0.398   2.379   3.263 -0.1972 -0.8444  0.1686
  943SOL     OW 2783   1.535   1.157   3.456 -0.1599  0.2441  0.0142
  943SOL    HW1 2784   1.451   1.160   3.401  0.8234  0.2629 -1.5499
  943SOL    HW2 2785   1.613   1.181   3.398  0.9443  0.1813  1.4299
  944SOL     OW 2786   1.863   3.236   1.514 -0.1968  0.2989  0.3896
  944SOL    HW1 2787   1.833   3.160   1.571  0.9227  0.3471  1.0920
  944SOL    HW2 2788   1.784   3.279   1.471 -0.8450 -1.2290  0.0001
  945SOL     OW 2789   1.982   1.706   0.758  0.0804 -0.4474  0.3256
  945SOL    HW1 2790   1.940   1.770   0.694  0.0658  0.6345  1.3569
  945SOL    HW2 2791   2.070   1.677   0.723  0.2375  0.4110 -0.0337
  946SOL     OW 2792   0.546   1.485   0.203 -0.3300  0.2159 -0.3373
  946SOL    HW1 2793   0.554   1.406   0.142 -1.7094  0.0995 -0.4027
  946SOL    HW2 2794   0.613   1.478   0.276  1.6224  0.5301 -1.9867
  947SOL     OW 2795   1.649   0.521   0.132  0.1665  0.3401 -0.1800
  947SOL    HW1 2796   1.593   0.444   0.102  0.8626  0.7773 -2.8318
  947SOL    HW2 2797   1.640   0.531   0.231 -1.3863 -1.9627  0.0073
  948SOL     OW 2798   3.070   0.032   2.300 -0.0161 -0.0451 -0.0171
  948SOL    HW1 2799   3.151   0.061   2.248  0.0809  1.3082  0.8581
  948SOL    HW2 2800   2.998   0.100   2.290 -0.0650  0.1348  1.4427
  949SOL     OW 2801   1.538   0.284   0.053  0.3127  0.0934  0.5512
  949SOL    HW1 2802   1.529   0.204  -0.008 -0.3658 -0.2792  1.1213
  949SOL    HW2 2803   1.482   0.359   0.017  2.6578  1.1069 -1.1963
  950SOL     OW 2804   2.329   2.777   2.039 -0.3778  0.2929 -0.0743
  950SOL    HW1 2805   2.269   2.856   2.024 -2.3526 -0.7716  1.7072
  950SOL    HW2 2806   2.358   2.776   2.135  1.2150 -0.1372 -0.5303
  951SOL     OW 2807   1.114   2.197   0.563  0.1201 -0.0154 -0.0432
  951SOL    HW1 2808   1.209   2.194   0.595  0.5541 -2.0186 -1.3115
  951SOL    HW2 2809   1.096   2.285   0.520  1.5800  0.1989 -0.2701
  952SOL     OW 2810   2.401   1.048   1.832 -0.2947  0.0041  0.0576
  952SOL    HW1 2811   2.452   1.021   1.914  1.1096  1.9076 -0.1163
  952SOL    HW2 2812   2.438   1.000   1.753 -1.5635 -1.7352  0.4577
  953SOL     OW 2813   3.324   1.170   2.046  0.5044 -0.1120  0.2219
  953SOL    HW1 2814   3.234   1.164   2.003  0.8684 -0.8092 -0.4708
  953SOL    HW2 2815   3.326   1.111   2.127 -0.2660  1.4019  1.4222
  954SOL     OW 2816   2.576   3.350   0.872 -0.3611  0.4561 -0.1016
  954SOL    HW1 2817   2.584   3.424   0.805 -0.0341 -0.1797 -0.7820
  954SOL    HW2 2818   2.663   3.341   0.922  0.0683 -0.3610 -0.9812
  955SOL     OW 2819   3.654   0.283   0.558  0.2867  0.4884  0.1963
  955SOL    HW1 2820   3.561   0.317   0.572  0.8276  1.5402  1.4433
  955SOL    HW2 2821   3.656   0.223   0.477 -1.9114 -1.3495  1.3807
  956SOL     OW 2822   0.309   2.149   2.873 -0.1426 -0.6057  0.4081
  956SOL    HW1 2823   0.361   2.119   2.793  1.5666 -0.2482  1.3393
  956SOL    HW2 2824   0.281   2.070   2.926  0.3598 -0.7482  0.4565
  957SOL     OW 2825   3.339   0.343   0.378 -0.7049 -0.1433  0.4446
  957SOL    HW1 2826   3.384   0.384   0.458 -0.3379 -1.1020  0.7404
  957SOL    HW2 2827   3.240   0.353   0.387 -0.6047  2.3916 -0.4227
  958SOL     OW 2828   1.632   0.718   3.405 -0.2926  0.4822 -0.1997
  958SOL    HW1 2829   1.579   0.708   3.489  1.0239  0.1884  0.6104
  958SOL    HW2 2830   1.689   0.637   3.391  1.4312  1.6033  0.0258
  959SOL     OW 2831   3.208   3.490   0.628 -0.4820  0.5868  0.2969
  959SOL    HW1 2832   3.271   3.472   0.704 -1.2379 -0.2755  0.7412
  959SOL    HW2 2833   3.253   3.465   0.542 -0.0486  0.4262  0.5647
  960SOL     OW 2834   2.183   0.267   3.296 -0.1942 -0.2299 -0.0845
  960SOL    HW1 2835   2.177   0.292   3.199  0.6896  0.8137  0.1074
  960SOL    HW2 2836   2.221   0.344   3.347 -1.6772 -0.3581  1.2699
  961SOL     OW 2837   1.849   1.485   0.058  0.1113 -0.2118  0.1935
  961SOL    HW1 2838   1.797   1.418   0.112  1.2271 -0.4437  1.0080
  961SOL    HW2 2839   1.947   1.469   0.070  0.5014  2.7688  2.0170
  962SOL     OW 2840   2.828   1.982   0.097 -0.1187  0.8051  0.0595
  962SOL    HW1 2841   2.916   1.936   0.081  0.3863  1.2642  1.3682
  962SOL    HW2 2842   2.759   1.944   0.035  0.6706 -0.5501 -0.0358
  963SOL     OW 2843   2.826   0.592   2.089 -0.0753 -0.2679  0.1555
  963SOL    HW1 2844   2.894   0.660   2.117  1.5606 -2.2484  1.2423
  963SOL    HW2 2845   2.754   0.587   2.157  0.0628  0.0168  0.3241
  964SOL     OW 2846   1.207   0.684   2.168  1.0866 -0.3918  0.2926
  964SOL    HW1 2847   1.116   0.712   2.200  0.0727  0.6346 -3.0374
  964SOL    HW2 2848   1.217   0.585   2.177 -0.3099 -0.5018  0.8366
  965SOL     OW 2849   2.670   2.577   1.528 -0.2323  0.6529  0.4755
  965SOL    HW1 2850   2.656   2.584   1.627  0.7803  0.0906  0.6736
  965SOL    HW2 2851   2.672   2.668   1.488  0.3427  0.9348  1.1298
  966SOL     OW 2852   3.126   0.432   2.248  0.0133  0.2256  0.2846
  966SOL    HW1 2853   3.202   0.470   2.196  0.1659  0.2281  0.5062
  966SOL    HW2 2854   3.056   0.397   2.186  0.9050 -1.2369  0.0612
  967SOL     OW 2855   2.266   2.957   0.829  0.1880 -0.1667 -0.5290
  967SOL    HW1 2856   2.299   2.914   0.913 -0.7668 -0.9364 -0.5250
  967SOL    HW2 2857   2.305   3.048   0.820  1.2913 -0.5643  0.1010
  968SOL     OW 2858   0.644   1.113   0.454  0.0425 -0.2518  0.1221
  968SOL    HW1 2859   0.686   1.201   0.478 -0.2556 -0.5609  1.8976
  968SOL    HW2 2860   0.683   1.080   0.368 -0.8507  2.2762 -1.3756
  969SOL     OW 2861   2.554   0.201   0.110  0.4942 -0.5217  0.3625
  969SOL    HW1 2862   2.608   0.162   0.035  1.2042 -0.3640  0.7740
  969SOL    HW2 2863   2.603   0.280   0.148 -0.6175  0.3803 -0.0383
  970SOL     OW 2864   2.126   0.310   1.278  0.1485 -0.3988 -0.0605
  970SOL    HW1 2865   2.060   0.258   1.333 -1.5796  3.5732  2.0148
  970SOL    HW2 2866   2.095   0.404   1.269  4.5782  1.2013 -0.8149
  971SOL     OW 2867   2.482   1.639   3.034 -0.2890 -0.0728 -0.6830
  971SOL    HW1 2868   2.515   1.712   3.093  0.0660 -0.8646  0.1234
  971SOL    HW2 2869   2.406   1.592   3.078 -0.1307 -0.5664 -0.9268
  972SOL     OW 2870   0.319   0.790   0.143 -0.2811  0.1005 -0.0801
  972SOL    HW1 2871   0.399   0.745   0.183 -1.4039 -0.6773  1.4024
  972SOL    HW2 2872   0.349   0.855   0.073  1.8451  1.5184  1.9753
  973SOL     OW 2873   2.287   0.488   3.428 -0.2358 -0.1287  0.5365
  973SOL    HW1 2874   2.220   0.557   3.452  0.1819 -0.1275  1.7593
  973SOL    HW2 2875   2.375   0.532   3.410 -0.6603 -0.0595 -1.6990
  974SOL     OW 2876   2.284   1.026   1.352  0.3539  0.0548 -0.7984
  974SOL    HW1 2877   2.281   1.002   1.255 -0.9475 -0.5196 -0.6317
  974SOL    HW2 2878   2.326   1.116   1.362 -0.6872  0.7194 -2.0349
  975SOL     OW 2879   1.529   0.404   2.190  0.3102 -0.0562  0.0867
  975SOL    HW1 2880   1.612   0.415   2.134  1.0583 -2.4649  0.5824
  975SOL    HW2 2881   1.553   0.417   2.287 -0.1665  0.3894  0.1471
  976SOL     OW 2882   3.602   1.173   2.054 -0.6937  0.2576 -0.6206
  976SOL    HW1 2883   3.503   1.168   2.039 -0.5433  0.6601 -1.8687
  976SOL    HW2 2884   3.624   1.256   2.106 -0.9205  0.8035 -1.3737
  977SOL     OW 2885   0.091   2.507   3.124 -0.4704 -0.2676 -0.1780
  977SOL    HW1 2886   0.033   2.547   3.195  0.1990  0.1005  0.1659
  977SOL    HW2 2887   0.181   2.487   3.162 -0.1096 -0.0771 -0.9245
  978SOL     OW 2888   2.894   1.127   0.393 -0.5236 -0.7217  0.0001
  978SOL    HW1 2889   2.928   1.104   0.485  0.4385 -0.8936 -0.3855
  978SOL    HW2 2890   2.932   1.063   0.327 -1.7238 -0.9904 -0.4515
  979SOL     OW 2891   0.111   1.378   0.750 -0.5120  0.6200  0.3375
  979SOL    HW1 2892   0.063   1.350   0.833 -1.8499  1.4129 -0.1301
  979SOL    HW2 2893   0.082   1.321   0.673 -0.0444  0.5393  0.2186
  980SOL     OW 2894   2.776   1.273   1.002  0.2374  0.1509  0.1046
  980SOL    HW1 2895   2.679   1.253   0.992  0.4195 -0.9843  0.4489
  980SOL    HW2 2896   2.791   1.324   1.087 -0.2579  2.0337 -0.8862
  981SOL     OW 2897   0.116   1.733   3.081  0.0138  0.0315 -0.1557
  981SOL    HW1 2898   0.147   1.729   3.176  0.3032 -0.0745 -0.2556
  981SOL    HW2 2899   0.032   1.680   3.071  0.2419 -0.3470 -0.0603
  982SOL     OW 2900   3.002   0.623   2.778  0.4161 -0.5308 -0.5760
  982SOL    HW1 2901   2.922   0.669   2.740  1.4977  0.4183 -1.7779
  982SOL    HW2 2902   2.973   0.538   2.823 -1.1376 -0.7561 -1.9072
  983SOL     OW 2903   1.687   1.848   0.205 -0.2071  0.0453  0.1402
  983SOL    HW1 2904   1.683   1.812   0.298 -1.6901  1.2787  0.6016
  983SOL    HW2 2905   1.697   1.947   0.208 -0.5011  0.1273 -1.0197
  984SOL     OW 2906   1.947   2.283   3.190  0.4840 -0.0475 -0.0187
  984SOL    HW1 2907   1.848   2.273   3.204  0.1528 -0.0856 -2.0261
  984SOL    HW2 2908   1.995   2.265   3.276 -1.1511 -1.7993  0.6114
  985SOL     OW 2909   1.405   3.505   0.087 -0.6622  0.0589  0.0908
  985SOL    HW1 2910   1.356   3.433   0.136  0.1252  0.6278  1.7845
  985SOL    HW2 2911   1.395   3.591   0.135 -1.0561  0.9816 -1.5694
  986SOL     OW 2912   2.229   0.602   1.447 -0.7273  0.4805 -0.1471
  986SOL    HW1 2913   2.166   0.561   1.381  0.8303 -0.4027 -1.1437
  986SOL    HW2 2914   2.315   0.552   1.447 -0.5421  0.6526  2.3631
  987SOL     OW 2915   2.231   2.222   1.985 -0.1015 -0.5900  0.6511
  987SOL    HW1 2916   2.279   2.236   2.071 -1.5699 -0.7706  1.5464
  987SOL    HW2 2917   2.194   2.129   1.983  1.2846 -1.1548 -0.9144
  988SOL     OW 2918   3.151   1.541   0.336 -0.1328  0.0085 -0.0501
  988SOL    HW1 2919   3.247   1.521   0.316 -0.6767 -1.0443 -1.7500
  988SOL    HW2 2920   3.107   1.459   0.373 -0.6823  0.1167 -0.4572
  989SOL     OW 2921   2.394   0.864   0.642 -0.1283 -0.3693 -0.3639
  989SOL    HW1 2922   2.487   0.873   0.676 -0.2449 -0.8650  0.0999
  989SOL    HW2 2923   2.395   0.867   0.542  0.4193 -0.6993 -0.3707
  990SOL     OW 2924   2.209   1.384   0.908  0.8398  0.5235  0.2388
  990SOL    HW1 2925   2.205   1.344   0.816  0.5943  1.6532 -0.2571
  990SOL    HW2 2926   2.149   1.333   0.969  2.2285 -1.2748  0.2129
  991SOL     OW 2927   1.474   0.490   1.180  0.4854 -0.6301  0.9658
  991SOL    HW1 2928   1.447   0.402   1.218  1.0696 -0.1516  2.5711
  991SOL    HW2 2929   1.400   0.526   1.123 -0.4322 -1.3880  1.6494
  992SOL     OW 2930   2.313   1.515   1.591 -0.0168 -0.0985  0.9733
  992SOL    HW1 2931   2.237   1.562   1.635 -0.0187  1.3155 -0.4376
  992SOL    HW2 2932   2.399   1.554   1.622  0.0393 -0.1648  0.9017
  993SOL     OW 2933   0.782   0.117   1.082 -0.4679  0.2454  0.0509
  993SOL    HW1 2934   0.879   0.119   1.056 -0.9316  0.7038 -1.7204
  993SOL    HW2 2935   0.773   0.071   1.171  1.7568  3.2856  2.0538
  994SOL     OW 2936   2.876   2.414   1.466 -0.3671  0.4440 -0.2847
  994SOL    HW1 2937   2.800   2.479   1.470 -0.2568  0.5545  0.1098
  994SOL    HW2 2938   2.840   2.321   1.476 -0.3563  0.5634  1.0765
  995SOL     OW 2939   2.413   1.236   1.525  0.2556 -0.2988  0.5607
  995SOL    HW1 2940   2.368   1.321   1.552 -2.7463 -1.0170 -1.6652
  995SOL    HW2 2941   2.450   1.190   1.606  0.3869  2.2090  2.0227
  996SOL     OW 2942   2.047   0.613   3.517 -0.0610  0.0176  0.0957
  996SOL    HW1 2943   1.965   0.599   3.573  0.5846 -0.1347  1.0216
  996SOL    HW2 2944   2.047   0.705   3.479  0.5851  0.9371  2.2129
  997SOL     OW 2945   2.597   0.397   0.415  0.2151  1.2565  0.0677
  997SOL    HW1 2946   2.608   0.300   0.436 -1.3193  1.1786  0.6713
  997SOL    HW2 2947   2.672   0.427   0.356  2.0301  0.3010  1.7639
  998SOL     OW 2948   1.249   2.917   1.207 -0.1574  0.8341  0.1894
  998SOL    HW1 2949   1.258   2.882   1.114 -1.0284  1.5520 -0.1782
  998SOL    HW2 2950   1.154   2.940   1.225 -0.0486  0.4058  1.3746
  999SOL     OW 2951   3.057   1.386   1.031  0.6157 -0.0763  0.3983
  999SOL    HW1 2952   3.100   1.308   0.985 -1.0820 -0.3601 -0.8271
  999SOL    HW2 2953   2.975   1.413   0.981  0.1803  1.3855  1.7993
 1000SOL     OW 2954   3.430   1.220   2.582 -0.3818 -0.1263  0.0324
 1000SOL    HW1 2955   3.444   1.221   2.681  1.2672  0.2454 -0.1736
 1000SOL    HW2 2956   3.500   1.162   2.539 -2.1627 -1.7986 -0.7994
 1001SOL     OW 2957   3.389   3.579   2.794 -0.7610  0.0381 -0.0376
 1001SOL    HW1 2958   3.402   3.480   2.790 -0.8990  0.0626 -1.5333
 1001SOL    HW2 2959   3.405   3.618   2.704  1.5300  1.6828  0.9957
 1002SOL     OW 2960   1.583   1.219   2.542  0.5863 -0.8789 -0.5145
 1002SOL    HW1 2961   1.550   1.278   2.615  1.5650 -0.6077 -0.2694
 1002SOL    HW2 2962   1.636   1.144   2.582  1.9887 -0.1751 -0.9497
 1003SOL     OW 2963   3.084   3.394   0.315  0.2435  0.0819 -0.1776
 1003SOL    HW1 2964   3.082   3.320   0.247  0.8600 -0.5175  0.4325
 1003SOL    HW2 2965   3.167   3.385   0.370  0.2410  1.1481  0.0090
 1004SOL     OW 2966   2.446   0.442   1.408  0.3248  0.5961  0.2783
 1004SOL    HW1 2967   2.489   0.364   1.362  1.3605  1.3400 -0.0357
 1004SOL    HW2 2968   2.515   0.509   1.433 -0.6535  1.8743 -0.3149
 1005SOL     OW 2969   3.654   1.799   0.826 -0.1073  0.0726  0.1874
 1005SOL    HW1 2970   3.656   1.733   0.751 -0.5825  0.6646 -0.3639
 1005SOL    HW2 2971   3.747   1.814   0.859  0.2161  0.3964 -0.8276
 1006SOL     OW 2972   3.504   1.676   1.697  0.0496 -0.3560  0.0286
 1006SOL    HW1 2973   3.437   1.749   1.688  1.6382  1.1362 -0.1321
 1006SOL    HW2 2974   3.504   1.642   1.791  0.0208  0.5810  0.3755
 1007SOL     OW 2975   1.671   0.584   0.972 -0.2036  0.5315  0.5513
 1007SOL    HW1 2976   1.600   0.552   1.034 -0.1603 -0.7538 -0.0367
 1007SOL    HW2 2977   1.628   0.633   0.895 -0.3532  0.8326  0.8216
 1008SOL     OW 2978   2.701   1.391   3.080 -0.1554 -0.1869  0.0631
 1008SOL    HW1 2979   2.792   1.371   3.044 -0.3723 -1.5572  0.2110
 1008SOL    HW2 2980   2.633   1.373   3.009 -0.4789 -1.5494  0.6905
 1009SOL     OW 2981   2.435   0.032   0.317 -0.0117  0.2105  0.0206
 1009SOL    HW1 2982   2.459   0.095   0.243 -0.8785 -0.9218 -1.2749
 1009SOL    HW2 2983   2.335   0.027   0.325  0.0656 -0.3039  0.7206
 1010SOL     OW 2984   2.627   0.639   1.498 -0.1831  0.7124  0.2608
 1010SOL    HW1 2985   2.623   0.698   1.579 -0.9858  0.9430  0.0595
 1010SOL    HW2 2986   2.668   0.689   1.422 -0.2709  0.8002  0.2710
 1011SOL     OW 2987   2.905   0.403   0.974 -0.5884 -0.1302  0.0084
 1011SOL    HW1 2988   2.908   0.388   0.876  2.2327 -0.0884 -0.0026
 1011SOL    HW2 2989   2.960   0.484   0.997 -0.6567 -0.5182  1.6583
 1012SOL     OW 2990   1.160   0.706   1.876  0.1887 -0.1993  0.1034
 1012SOL    HW1 2991   1.156   0.772   1.951  1.9263 -1.6134  1.5230
 1012SOL    HW2 2992   1.235   0.731   1.814 -0.5035  0.3131 -0.5441
 1013SOL     OW 2993   2.852   0.248   2.366 -0.6929 -0.1421  0.0529
 1013SOL    HW1 2994   2.860   0.282   2.273 -0.7758  0.0637  0.1193
 1013SOL    HW2 2995   2.806   0.317   2.423 -0.9944 -0.4254  0.1564
 1014SOL     OW 2996   0.471   0.879   1.074  0.5152  0.1511 -0.0903
 1014SOL    HW1 2997   0.530   0.958   1.087  2.9952 -1.1490 -2.4080
 1014SOL    HW2 2998   0.443   0.873   0.979 -0.4614 -1.2263  0.2467
 1015SOL     OW 2999   1.731   3.099   3.192  0.5728  0.3083 -0.3849
 1015SOL    HW1 3000   1.752   3.069   3.286 -1.1264 -0.5813 -0.2569
 1015SOL    HW2 3001   1.812   3.086   3.135  0.9829 -1.2697  0.4743
 1016SOL     OW 3002   1.343   1.036   1.144 -0.7571  0.0174 -0.1681
 1016SOL    HW1 3003   1.400   1.114   1.171  0.4349 -1.4175  1.7581
 1016SOL    HW2 3004   1.398   0.974   1.088 -0.0965 -1.6867  2.2192
 1017SOL     OW 3005   3.146   0.946   0.721  0.3410  0.4619  0.0242
 1017SOL    HW1 3006   3.215   0.988   0.662  0.0359 -0.6356 -1.1618
 1017SOL    HW2 3007   3.159   0.847   0.723 -0.7472  0.3107  0.3866
 1018SOL     OW 3008   2.339   0.901   2.880 -0.0242 -0.8033 -0.2979
 1018SOL    HW1 3009   2.387   0.879   2.965  1.7855  0.0941 -1.0479
 1018SOL    HW2 3010   2.402   0.898   2.803 -0.6540  2.2714 -1.0957
 1019SOL     OW 3011   0.291   3.284   1.289 -0.0242 -0.0706  0.3841
 1019SOL    HW1 3012   0.214   3.233   1.325 -1.2021  0.7455 -0.8798
 1019SOL    HW2 3013   0.264   3.379   1.273  1.4597  0.4207  0.5806
 1020SOL     OW 3014   1.289   0.491   2.413 -0.2848 -0.1042 -0.4711
 1020SOL    HW1 3015   1.266   0.582   2.447  0.2938  0.2003 -0.8687
 1020SOL    HW2 3016   1.316   0.498   2.317  0.2167 -0.6306 -0.3702
 1021SOL     OW 3017   3.218   3.609   1.856  0.1200 -0.5419 -0.0744
 1021SOL    HW1 3018   3.280   3.534   1.877 -0.3240 -0.9460 -0.1804
 1021SOL    HW2 3019   3.132   3.572   1.819 -0.0405  0.0238 -0.2852
 1022SOL     OW 3020   3.063   0.266   3.480 -0.5068 -0.2958 -0.6792
 1022SOL    HW1 3021   3.117   0.223   3.407  1.6110 -0.2262  0.7827
 1022SOL    HW2 3022   3.123   0.321   3.539 -2.2759  0.2228  0.7288
 1023SOL     OW 3023   3.423   3.546   0.929  0.3536  0.0183 -0.6759
 1023SOL    HW1 3024   3.508   3.594   0.952  0.2682  0.2798 -0.8999
 1023SOL    HW2 3025   3.360   3.550   1.007  1.4301 -2.2128  0.4084
 1024SOL     OW 3026   1.324   0.025   0.752 -0.1447  0.1591 -0.5100
 1024SOL    HW1 3027   1.396   0.054   0.689 -0.7524 -0.8380 -1.7051
 1024SOL    HW2 3028   1.363   0.008   0.842  0.9807  0.3155 -0.9555
 1025SOL     OW 3029   3.431   2.397   1.025  0.4359  0.3793 -0.3065
 1025SOL    HW1 3030   3.449   2.300   1.004  0.1879  0.0070  1.0723
 1025SOL    HW2 3031   3.373   2.436   0.954 -1.2355 -1.0954  0.1711
 1026SOL     OW 3032   2.877   1.799   1.063  0.1805  0.4460 -0.0325
 1026SOL    HW1 3033   2.814   1.858   1.013  0.0485  0.7176  0.4423
 1026SOL    HW2 3034   2.890   1.714   1.013  1.0383  1.2191 -1.1497
 1027SOL     OW 3035   1.107   0.681   2.502  0.2886  0.0078 -0.4005
 1027SOL    HW1 3036   1.064   0.604   2.548  1.2144 -0.0603  0.3755
 1027SOL    HW2 3037   1.062   0.696   2.414 -1.2836 -0.0690  0.3561
 1028SOL     OW 3038   3.042   0.607   1.364 -0.1644 -0.1353  0.4147
 1028SOL    HW1 3039   3.089   0.657   1.291 -1.0126 -0.0071 -0.0617
 1028SOL    HW2 3040   3.017   0.670   1.437 -1.5107  0.2374 -0.3260
 1029SOL     OW 3041   2.690   3.283   1.409  0.1128  0.0684  0.5041
 1029SOL    HW1 3042   2.709   3.322   1.319 -0.0345 -1.2729 -0.1266
 1029SOL    HW2 3043   2.699   3.183   1.405 -1.7309 -0.1829  1.5075
 1030SOL     OW 3044   2.678   1.847   1.992 -0.2038  0.3058  0.1824
 1030SOL    HW1 3045   2.735   1.822   2.070  0.6603 -0.1937 -0.5945
 1030SOL    HW2 3046   2.657   1.945   1.996  0.5374  0.4553  0.5884
 1031SOL     OW 3047   0.135   0.552   0.916  0.1530  0.3345  0.4637
 1031SOL    HW1 3048   0.103   0.567   0.823 -2.9479  0.6005  1.4524
 1031SOL    HW2 3049   0.101   0.625   0.975  2.1762  0.2590  1.8185
 1032SOL     OW 3050   1.470   1.249   1.265 -0.8258  0.0260  0.0963
 1032SOL    HW1 3051   1.534   1.245   1.188 -0.6577 -2.2713  0.2920
 1032SOL    HW2 3052   1.520   1.238   1.351 -1.3628 -0.7099  0.3185
 1033SOL     OW 3053   3.452   1.374   0.604  0.0248  0.2724 -0.1735
 1033SOL    HW1 3054   3.432   1.442   0.674  1.2007  0.6944 -0.2160
 1033SOL    HW2 3055   3.425   1.409   0.514 -0.0836  0.3717 -0.1018
 1034SOL     OW 3056   3.170   0.685   0.666  0.5582 -0.1163  0.3476
 1034SOL    HW1 3057   3.185   0.586   0.658 -0.6174 -0.3235  0.5888
 1034SOL    HW2 3058   3.118   0.718   0.587 -0.2173  0.0628  0.9216
 1035SOL     OW 3059   0.062   1.157   2.919  0.2152 -0.4086 -0.3086
 1035SOL    HW1 3060   0.065   1.082   2.985 -2.3001  0.4795  0.9353
 1035SOL    HW2 3061   0.098   1.240   2.961  0.9714 -0.4030 -0.9477
 1036SOL     OW 3062   3.051   1.804   0.139 -0.1310  0.3737 -0.4519
 1036SOL    HW1 3063   3.085   1.821   0.231 -1.2012  0.9548 -0.1494
 1036SOL    HW2 3064   2.991   1.724   0.139  0.3823 -0.0191 -0.7788
 1037SOL     OW 3065   0.715   0.818   1.662 -0.0587  0.3209  0.4294
 1037SOL    HW1 3066   0.797   0.829   1.605 -0.6014 -1.5377 -0.8017
 1037SOL    HW2 3067   0.724   0.875   1.744  0.5188  3.5694 -1.6892
 1038SOL     OW 3068   2.858   3.375   1.076  0.5381 -0.0577 -0.0086
 1038SOL    HW1 3069   2.823   3.444   1.140 -1.2866  0.5798 -1.5871
 1038SOL    HW2 3070   2.942   3.410   1.033  1.5758 -0.3407  1.6728
 1039SOL     OW 3071   1.563   1.274   0.980 -0.0598 -0.0488 -0.2469
 1039SOL    HW1 3072   1.605   1.212   0.913  3.4597  0.5634  1.1711
 1039SOL    HW2 3073   1.634   1.310   1.040 -2.8653  0.4640  3.0273
 1040SOL     OW 3074   0.756   2.973   1.520  0.3975 -0.2614 -0.1970
 1040SOL    HW1 3075   0.702   2.965   1.436  0.7951  0.6498 -0.5484
 1040SOL    HW2 3076   0.709   2.924   1.594 -0.6055 -0.0078 -0.6416
 1041SOL     OW 3077   0.358   1.149   0.956 -0.0717 -0.1652 -0.1752
 1041SOL    HW1 3078   0.355   1.238   1.000  0.8994 -0.6566  0.9453
 1041SOL    HW2 3079   0.277   1.096   0.980 -0.0554 -0.0346  0.1700
 1042SOL     OW 3080   2.083   0.559   1.203  0.4432  0.1909  0.0051
 1042SOL    HW1 3081   2.170   0.597   1.171  0.7560 -1.6539 -1.5186
 1042SOL    HW2 3082   2.007   0.601   1.152  0.6986 -0.3033 -0.8151
 1043SOL     OW 3083   3.321   1.026   0.087  0.1902  0.1221 -0.1658
 1043SOL    HW1 3084   3.351   0.937   0.123  0.7751 -0.2108 -1.4216
 1043SOL    HW2 3085   3.401   1.081   0.063 -0.1801  0.5129 -0.5226
 1044SOL     OW 3086   3.070   2.638   0.624 -0.0845  0.2511 -0.6332
 1044SOL    HW1 3087   2.998   2.594   0.571 -0.8623  0.8208 -0.0701
 1044SOL    HW2 3088   3.041   2.730   0.650 -0.2796 -0.4603  1.8777
 1045SOL     OW 3089   2.590   1.545   0.426 -0.3100  0.4085 -0.0416
 1045SOL    HW1 3090   2.668   1.485   0.404 -1.6218 -1.6185  0.5652
 1045SOL    HW2 3091   2.546   1.573   0.341  0.6833  1.0634 -0.3633
 1046SOL     OW 3092   0.892   0.967   0.759  0.0587 -0.8428  0.0232
 1046SOL    HW1 3093   0.930   0.928   0.843 -0.8814 -2.4416 -0.2562
 1046SOL    HW2 3094   0.958   0.956   0.685  1.0074  0.8267  0.5711
 1047SOL     OW 3095   1.826   1.457   0.523 -0.0733 -0.3068 -0.4485
 1047SOL    HW1 3096   1.900   1.504   0.476  0.1711  0.2961  0.4956
 1047SOL    HW2 3097   1.862   1.377   0.571 -0.2352 -0.6564 -0.9143
 1048SOL     OW 3098   3.195   1.595   2.021 -0.3538 -0.0499 -0.6316
 1048SOL    HW1 3099   3.199   1.545   1.935 -4.3695 -2.7635  0.4499
 1048SOL    HW2 3100   3.242   1.543   2.092  0.7233  0.9153 -0.5932
 1049SOL     OW 3101   3.370   1.057   0.617  0.0043 -0.3680 -0.3719
 1049SOL    HW1 3102   3.355   1.153   0.593 -1.4672 -1.0109 -2.3144
 1049SOL    HW2 3103   3.452   1.023   0.571  0.6235 -0.0159  0.4559
 1050SOL     OW 3104   1.698   2.619   0.563  0.0193  0.1072  0.0083
 1050SOL    HW1 3105   1.669   2.631   0.658 -0.9960 -0.7458 -0.1684
 1050SOL    HW2 3106   1.726   2.524   0.549  2.1607  0.7089 -0.0527
 1051SOL     OW 3107   3.075   0.299   0.453 -0.0148  0.2812  0.1993
 1051SOL    HW1 3108   3.109   0.221   0.505  2.6808  0.5256 -1.0105
 1051SOL    HW2 3109   3.019   0.268   0.377  0.9677 -0.5174 -0.2207
 1052SOL     OW 3110   2.755   0.192   1.395 -0.6378 -0.0086  0.9849
 1052SOL    HW1 3111   2.760   0.270   1.458 -0.4025  1.3404 -0.6267
 1052SOL    HW2 3112   2.777   0.108   1.444  1.5056  1.2090  2.2827
 1053SOL     OW 3113   1.842   2.875   0.222 -0.0061 -0.3590 -0.1041
 1053SOL    HW1 3114   1.936   2.841   0.211  0.0303 -0.5962  0.8812
 1053SOL    HW2 3115   1.781   2.824   0.161  0.1649 -1.7021  0.8048
 1054SOL     OW 3116   1.991   0.557   2.025 -0.0330 -0.0099  0.2001
 1054SOL    HW1 3117   1.974   0.480   2.085  3.0192  0.6547  2.1901
 1054SOL    HW2 3118   1.942   0.638   2.059  2.0235  0.4808  2.2973
 1055SOL     OW 3119   2.997   3.473   2.358  0.6799  0.0358  0.0142
 1055SOL    HW1 3120   2.992   3.420   2.273 -2.6990 -0.7218  0.5232
 1055SOL    HW2 3121   3.012   3.569   2.336 -1.0259 -0.0043 -1.5744
 1056SOL     OW 3122   1.266   3.186   3.267  0.1737  0.2581 -0.0505
 1056SOL    HW1 3123   1.194   3.256   3.262  1.4907  1.6090 -2.4526
 1056SOL    HW2 3124   1.276   3.142   3.178  3.0412  0.9675 -0.1944
 1057SOL     OW 3125   3.170   0.037   1.499  0.7990 -0.1267  0.1004
 1057SOL    HW1 3126   3.174  -0.062   1.486 -0.8866 -0.1114 -0.8785
 1057SOL    HW2 3127   3.156   0.081   1.411 -0.8894  0.7838  0.7827
 1058SOL     OW 3128   2.165   0.938   1.869  0.3632 -0.1196  0.5121
 1058SOL    HW1 3129   2.130   0.904   1.782  0.4745 -1.6561  1.0456
 1058SOL    HW2 3130   2.257   0.976   1.855  1.1481 -2.0396  0.2589
 1059SOL     OW 3131   0.107   0.525   3.692 -0.2741 -0.1461 -0.0767
 1059SOL    HW1 3132   0.144   0.547   3.601  0.4976  0.0901  0.2897
 1059SOL    HW2 3133   0.090   0.609   3.743 -0.0614 -0.2976  0.2497
 1060SOL     OW 3134   2.094   3.168   1.372  0.3954 -0.1892 -0.0662
 1060SOL    HW1 3135   2.018   3.183   1.435  0.3843  0.8218 -0.3130
 1060SOL    HW2 3136   2.157   3.245   1.377  0.5349 -0.2316 -1.1122
 1061SOL     OW 3137   0.660   2.317   0.835 -0.5563 -0.0888 -0.2964
 1061SOL    HW1 3138   0.719   2.258   0.780  1.4008  1.1608  0.3420
 1061SOL    HW2 3139   0.692   2.412   0.828 -0.0544  0.1055  3.0899
 1062SOL     OW 3140   1.905   0.014   1.164  0.2140 -0.0220 -0.4927
 1062SOL    HW1 3141   1.993   0.021   1.116 -1.0007  0.8735 -2.7200
 1062SOL    HW2 3142   1.907   0.071   1.245  1.7084 -0.0914 -0.4501
 1063SOL     OW 3143   1.423   2.629   2.185 -0.2315 -0.2552  0.1586
 1063SOL    HW1 3144   1.449   2.558   2.250 -1.4703 -1.5561 -0.7294
 1063SOL    HW2 3145   1.474   2.616   2.100 -0.7060 -0.2739 -0.1218
 1064SOL     OW 3146   2.334   2.217   1.436 -0.0809 -0.1770  0.6171
 1064SOL    HW1 3147   2.338   2.232   1.535  0.2385 -1.2859  0.7870
 1064SOL    HW2 3148   2.286   2.132   1.416  2.0116 -1.2899 -0.0128
 1065SOL     OW 3149   0.399   3.197   1.035  0.2967  0.1803 -0.3155
 1065SOL    HW1 3150   0.374   3.243   1.120 -0.5290 -0.0738 -0.4051
 1065SOL    HW2 3151   0.469   3.251   0.987  0.4486  0.5488  0.3108
 1066SOL     OW 3152   2.309   3.610   0.043  0.1040  0.0034  0.1247
 1066SOL    HW1 3153   2.385   3.551   0.067 -0.6844 -1.4591 -0.8329
 1066SOL    HW2 3154   2.298   3.681   0.113  2.9540  0.9065 -0.2441
 1067SOL     OW 3155   2.286   1.732   0.612  0.3585 -0.5950  0.1483
 1067SOL    HW1 3156   2.286   1.807   0.546  1.6992 -0.2235  0.5534
 1067SOL    HW2 3157   2.367   1.737   0.669 -0.6567 -1.0328  1.7036
 1068SOL     OW 3158   2.913   0.315   2.088 -0.4455 -0.5366 -0.3788
 1068SOL    HW1 3159   2.882   0.406   2.059  0.5386  0.1027  0.5077
 1068SOL    HW2 3160   2.945   0.264   2.009  1.9154  1.0554 -0.5543
 1069SOL     OW 3161   3.062   2.876   1.117  1.1272 -0.0763 -0.0065
 1069SOL    HW1 3162   3.133   2.810   1.141  0.4562 -0.7511  0.1810
 1069SOL    HW2 3163   2.972   2.839   1.142  0.7314  0.9081  0.0827
 1070SOL     OW 3164   0.459   2.085   2.642 -0.0233  0.3709 -0.4862
 1070SOL    HW1 3165   0.552   2.061   2.672 -1.0815  0.1949  3.1041
 1070SOL    HW2 3166   0.465   2.159   2.575  2.7100  1.2049  0.5046
 1071SOL     OW 3167   2.163   2.029   1.363  0.2879 -0.4236  0.0530
 1071SOL    HW1 3168   2.114   2.075   1.289  2.4187 -1.8816 -2.4567
 1071SOL    HW2 3169   2.190   1.937   1.332  0.5796 -1.4195  2.9971
 1072SOL     OW 3170   2.623   0.661   1.801  0.4907 -0.3185  0.5372
 1072SOL    HW1 3171   2.528   0.680   1.776  0.3996  1.2920  1.8864
 1072SOL    HW2 3172   2.624   0.607   1.886  0.7798 -0.5717  0.3723
 1073SOL     OW 3173   3.479   1.692   2.590 -0.3733  0.4898 -0.3703
 1073SOL    HW1 3174   3.498   1.722   2.684 -1.3228 -0.5991  0.1916
 1073SOL    HW2 3175   3.406   1.749   2.552 -0.5212  0.4371 -0.1691
 1074SOL     OW 3176   3.222   1.776   0.864  0.5352  0.0014 -0.3647
 1074SOL    HW1 3177   3.305   1.817   0.826  0.2769  0.3177 -0.5892
 1074SOL    HW2 3178   3.207   1.812   0.956 -0.2078  1.1572 -0.9119
 1075SOL     OW 3179   1.657   0.679   1.321  0.0358  0.2549 -0.0050
 1075SOL    HW1 3180   1.589   0.620   1.277  0.9363  0.0781 -1.1856
 1075SOL    HW2 3181   1.671   0.760   1.265  1.1431  0.0625 -0.0170
 1076SOL     OW 3182   2.019   1.720   1.174 -0.2603  1.0860 -0.4047
 1076SOL    HW1 3183   1.977   1.743   1.085  0.2870  0.4487 -0.8364
 1076SOL    HW2 3184   1.961   1.655   1.222 -0.8212  1.8295 -0.0535
 1077SOL     OW 3185   3.143   3.289   1.594 -0.1455 -0.5186  0.0219
 1077SOL    HW1 3186   3.088   3.211   1.565  0.6351 -0.2079 -2.4976
 1077SOL    HW2 3187   3.240   3.262   1.595 -0.1159 -0.8134  3.5757
 1078SOL     OW 3188   2.634   0.685   2.989  0.6376  0.6106 -0.2318
 1078SOL    HW1 3189   2.591   0.763   3.035 -0.8795 -0.3139 -0.0197
 1078SOL    HW2 3190   2.618   0.602   3.041 -0.2985 -0.3162 -1.9175
 1079SOL     OW 3191   0.633   2.063   2.363 -0.1157  0.1898 -0.2231
 1079SOL    HW1 3192   0.687   1.987   2.400 -0.6968  0.0903  0.4222
 1079SOL    HW2 3193   0.677   2.149   2.389 -0.5218  0.1233  0.7252
 1080SOL     OW 3194   2.292   0.922   1.085 -0.0975  0.1075  0.4797
 1080SOL    HW1 3195   2.292   0.823   1.077 -0.4020  0.0110  1.5279
 1080SOL    HW2 3196   2.385   0.956   1.070 -0.1435 -0.2418 -0.7203
 1081SOL     OW 3197   2.102   1.394   0.088 -0.1866 -0.5532 -0.3841
 1081SOL    HW1 3198   2.185   1.449   0.076 -1.7344  2.0303 -0.0897
 1081SOL    HW2 3199   2.108   1.341   0.172  0.8189  0.2715  0.0781
 1082SOL     OW 3200   3.045   0.774   3.462  0.0464 -0.1452 -0.1993
 1082SOL    HW1 3201   3.024   0.867   3.434 -0.3899 -0.2937 -0.3728
 1082SOL    HW2 3202   3.011   0.710   3.393  0.9584 -0.3990 -0.4258
 1083SOL     OW 3203   2.984   3.096   1.505 -0.5023  0.3964  0.2019
 1083SOL    HW1 3204   3.003   2.998   1.512 -0.5485  0.4256  0.8108
 1083SOL    HW2 3205   2.908   3.119   1.565 -1.5254  0.5359 -1.1022
 1084SOL     OW 3206   2.967   0.270   0.743  0.1809 -0.0681 -0.0259
 1084SOL    HW1 3207   2.936   0.301   0.653  0.4945 -1.8633 -0.7854
 1084SOL    HW2 3208   2.909   0.195   0.774 -1.6658  2.2151  2.5584
 1085SOL     OW 3209   3.045   2.127   3.651 -0.1844  0.4169  0.2700
 1085SOL    HW1 3210   2.981   2.077   3.593  1.2115 -1.0551 -0.1005
 1085SOL    HW2 3211   3.136   2.123   3.610  0.0877  2.8684  0.5262
 1086SOL     OW 3212   2.195   3.427   1.348 -0.1552 -0.0587  0.2161
 1086SOL    HW1 3213   2.249   3.398   1.269 -0.1906 -0.9385  0.5113
 1086SOL    HW2 3214   2.217   3.522   1.370  0.3438 -0.0160 -0.4359
 1087SOL     OW 3215   2.598   0.975   0.298 -0.0330 -0.0874  0.6449
 1087SOL    HW1 3216   2.683   1.015   0.332 -1.4466  1.5815  2.4816
 1087SOL    HW2 3217   2.534   1.048   0.273 -1.4432 -1.2589  0.6618
 1088SOL     OW 3218   2.738   3.308   1.796  0.0529 -0.2092  0.2404
 1088SOL    HW1 3219   2.655   3.252   1.805 -0.5171  0.6541  0.4902
 1088SOL    HW2 3220   2.716   3.392   1.746  0.9964 -0.3918 -0.5033
 1089SOL     OW 3221   1.876   0.566   0.009  0.3592 -0.0069 -0.0608
 1089SOL    HW1 3222   1.787   0.543   0.046  0.3902  0.2261  0.1589
 1089SOL    HW2 3223   1.943   0.497   0.037  0.3829  0.1707  0.3165
 1090SOL     OW 3224   3.270   1.882   3.406  1.0670 -0.1255  0.4117
 1090SOL    HW1 3225   3.348   1.874   3.344 -0.0398 -2.1828 -0.7996
 1090SOL    HW2 3226   3.227   1.793   3.418 -2.4315  1.2534 -0.6759
 1091SOL     OW 3227   2.454   1.178   0.137 -0.1551  0.2438  0.2635
 1091SOL    HW1 3228   2.524   1.247   0.121 -0.7575  0.4752 -1.7398
 1091SOL    HW2 3229   2.389   1.211   0.205 -0.5034  1.7408 -0.7607
 1092SOL     OW 3230   2.114   3.606   2.267 -0.6167  0.5129 -0.0347
 1092SOL    HW1 3231   2.071   3.632   2.353 -1.7018  1.5835 -0.8601
 1092SOL    HW2 3232   2.096   3.509   2.248 -1.3344  0.5649  0.3787
 1093SOL     OW 3233   2.256   0.767   0.103  0.7208 -0.0700 -0.5110
 1093SOL    HW1 3234   2.174   0.715   0.075  0.3627  0.9922 -1.5007
 1093SOL    HW2 3235   2.309   0.791   0.022  0.7195  1.3570 -0.1182
 1094SOL     OW 3236   2.517   1.399   2.840 -0.0086 -0.2488  0.1150
 1094SOL    HW1 3237   2.575   1.376   2.762 -0.1726 -1.2917  0.2937
 1094SOL    HW2 3238   2.511   1.499   2.849  1.3819 -0.1258 -0.1728
 1095SOL     OW 3239   0.172   1.482   3.464 -0.4592  0.3587 -0.4430
 1095SOL    HW1 3240   0.191   1.573   3.500  0.4059 -0.0532  0.1701
 1095SOL    HW2 3241   0.254   1.446   3.420 -0.1180 -0.9741  1.2043
 1096SOL     OW 3242   3.325   0.872   2.278  0.2518 -0.0223  0.0274
 1096SOL    HW1 3243   3.387   0.830   2.345  0.9091 -1.3457 -1.3501
 1096SOL    HW2 3244   3.305   0.966   2.306 -0.9233 -1.0348  2.9991
 1097SOL     OW 3245   0.119   0.013   0.625  0.1489  0.3521 -0.3033
 1097SOL    HW1 3246   0.214   0.040   0.606  0.8575 -0.8769  1.2342
 1097SOL    HW2 3247   0.082   0.072   0.697  0.5146 -0.4608  0.5906
 1098SOL     OW 3248   0.273   1.304   1.480  0.3185  0.4620  0.5193
 1098SOL    HW1 3249   0.317   1.323   1.568  1.6658 -0.7294  0.1525
 1098SOL    HW2 3250   0.213   1.225   1.489  0.5265  0.2832  0.3648
 1099SOL     OW 3251   1.494   2.111   2.856 -0.1639 -0.9002  0.2039
 1099SOL    HW1 3252   1.432   2.060   2.916  0.9179 -2.1064  0.3500
 1099SOL    HW2 3253   1.575   2.056   2.838  0.2885  0.1170 -1.0363
 1100SOL     OW 3254   1.723   1.688   2.725  0.1921 -0.6856  0.3169
 1100SOL    HW1 3255   1.728   1.611   2.662 -1.4654 -0.6841  0.1466
 1100SOL    HW2 3256   1.641   1.680   2.783  0.4840  0.4654  0.9371
 1101SOL     OW 3257   2.181   0.465   2.458  0.4298 -0.2219  0.1695
 1101SOL    HW1 3258   2.220   0.458   2.550  0.1200  0.1292  0.3314
 1101SOL    HW2 3259   2.218   0.393   2.400 -1.4027 -2.1897  1.3067
 1102SOL     OW 3260   2.324   1.270   1.200  0.3186  0.0470 -0.2227
 1102SOL    HW1 3261   2.408   1.250   1.150 -0.8257  0.7770 -2.6577
 1102SOL    HW2 3262   2.246   1.254   1.140 -1.2773 -0.1272  1.7958
 1103SOL     OW 3263   0.268   1.898   2.588 -0.2757  0.2562  0.0980
 1103SOL    HW1 3264   0.327   1.976   2.605 -1.0197  0.8999 -0.1799
 1103SOL    HW2 3265   0.176   1.917   2.624 -0.3880 -0.6190  0.3083
 1104SOL     OW 3266   2.046   3.607   0.013  0.0376  0.0556  0.8600
 1104SOL    HW1 3267   2.145   3.606   0.027  0.1207 -0.9020  0.2958
 1104SOL    HW2 3268   2.014   3.514  -0.002 -0.9629  0.3552  1.0821
 1105SOL     OW 3269   0.090   1.422   1.890 -0.0164  0.0713 -0.4631
 1105SOL    HW1 3270   0.051   1.356   1.825  0.9864  0.0047 -1.0107
 1105SOL    HW2 3271   0.079   1.388   1.983  1.4065 -1.3817 -0.7944
 1106SOL     OW 3272   2.501   1.877   2.476  0.0884 -0.7391 -0.4730
 1106SOL    HW1 3273   2.475   1.928   2.393  0.4465 -0.0124 -0.1517
 1106SOL    HW2 3274   2.461   1.785   2.472 -0.6251 -0.4230 -1.0444
 1107SOL     OW 3275   2.519   2.114   2.587 -0.0830 -0.7422  0.0523
 1107SOL    HW1 3276   2.518   2.118   2.687 -0.4908 -0.2319  0.0339
 1107SOL    HW2 3277   2.500   2.020   2.557 -1.5382 -0.5983  0.4460
 1108SOL     OW 3278   2.864   1.280   0.156 -0.3351  0.2229 -0.0176
 1108SOL    HW1 3279   2.868   1.232   0.244 -0.2264  1.3486  0.6124
 1108SOL    HW2 3280   2.954   1.277   0.113  0.7386  2.9086  1.7421
 1109SOL     OW 3281   0.467   1.630   3.055  0.4055  0.0819 -0.6612
 1109SOL    HW1 3282   0.471   1.721   3.013 -0.8823  1.3763  1.8044
 1109SOL    HW2 3283   0.395   1.577   3.010 -0.9353  1.4143 -0.1882
 1110SOL     OW 3284   3.308   0.309   1.965  0.1236  0.4829  0.2315
 1110SOL    HW1 3285   3.287   0.373   1.890 -0.2845 -0.5822 -0.5906
 1110SOL    HW2 3286   3.405   0.315   1.987 -0.1248  2.2488  1.0080
 1111SOL     OW 3287   1.714   1.004   2.679  0.1555  0.1949 -0.2530
 1111SOL    HW1 3288   1.786   1.018   2.747  0.3615 -0.3302 -0.3598
 1111SOL    HW2 3289   1.740   0.929   2.618  0.6272  1.5877 -1.8219
 1112SOL     OW 3290   3.577   0.424   3.571  0.0288 -0.0150 -0.3370
 1112SOL    HW1 3291   3.514   0.500   3.584  0.2791 -0.1218  2.0144
 1112SOL    HW2 3292   3.653   0.432   3.635  1.1762 -1.1506 -1.4875
 1113SOL     OW 3293   0.945   0.841   3.548  0.4430 -0.5890 -0.1706
 1113SOL    HW1 3294   0.955   0.904   3.625  2.0061  1.1366 -1.7073
 1113SOL    HW2 3295   1.035   0.819   3.511 -0.1686 -2.6759 -0.5692
 1114SOL     OW 3296   3.702  -0.023   1.936  0.0430  0.5372 -0.2726
 1114SOL    HW1 3297   3.689  -0.042   2.033  0.4136 -1.9972 -0.6556
 1114SOL    HW2 3298   3.716   0.076   1.923  0.8836  0.8349  2.3128
 1115SOL     OW 3299   2.352   0.493   0.384  0.1131 -0.3482 -0.1092
 1115SOL    HW1 3300   2.444   0.455   0.383  0.4614  0.4761 -1.3481
 1115SOL    HW2 3301   2.355   0.592   0.370 -1.0338 -0.5996 -2.7697
 1116SOL     OW 3302   1.489   1.659   2.870 -0.3167 -0.1212  0.2400
 1116SOL    HW1 3303   1.443   1.742   2.839  2.4632  1.6110  0.3665
 1116SOL    HW2 3304   1.523   1.673   2.964 -0.7633 -1.8553  0.6965
 1117SOL     OW 3305   0.044   1.405   3.046 -0.0439 -0.0327 -0.4365
 1117SOL    HW1 3306   0.001   1.454   2.970 -2.9397 -1.0744  0.4197
 1117SOL    HW2 3307   0.014   1.443   3.133 -0.2148 -1.5780  0.2200
 1118SOL     OW 3308   1.402   0.066   2.418 -0.1275  0.2262 -0.2037
 1118SOL    HW1 3309   1.425   0.087   2.323  1.1649  0.8531  0.2227
 1118SOL    HW2 3310   1.315   0.018   2.421 -0.3802  0.5348 -1.6744
 1119SOL     OW 3311   1.344   2.189   0.273  0.2461 -0.4204  0.1026
 1119SOL    HW1 3312   1.303   2.107   0.232 -0.0451 -1.7617  2.8167
 1119SOL    HW2 3313   1.271   2.249   0.307  0.4810  0.3235 -0.6865
 1120SOL     OW 3314   0.596   2.271   3.242  0.2688  0.3206 -0.4507
 1120SOL    HW1 3315   0.571   2.217   3.322 -0.8927  0.4087 -0.7355
 1120SOL    HW2 3316   0.654   2.347   3.270 -0.3891  0.5384  0.3675
 1121SOL     OW 3317   2.090   2.119   3.392  0.0326  0.3799 -0.1650
 1121SOL    HW1 3318   2.120   2.042   3.336  1.1822 -0.3547  1.3691
 1121SOL    HW2 3319   2.166   2.184   3.402  0.7166 -0.6725  2.3934
 1122SOL     OW 3320   1.338   0.499   3.720  0.2190  0.5132  0.0662
 1122SOL    HW1 3321   1.284   0.476   3.639  3.2114 -0.2529 -1.8716
 1122SOL    HW2 3322   1.392   0.581   3.702  0.9097  0.3522  1.2815
 1123SOL     OW 3323   0.192   1.473   1.291 -0.5448 -0.2812  1.2401
 1123SOL    HW1 3324   0.097   1.451   1.272 -0.1711 -1.4068  0.6301
 1123SOL    HW2 3325   0.225   1.417   1.367  0.3217 -1.6515 -0.1152
 1124SOL     OW 3326   2.793   1.536   1.973  0.1212  0.8879 -0.1755
 1124SOL    HW1 3327   2.836   1.587   1.899  2.4065  0.7762  1.0044
 1124SOL    HW2 3328   2.813   1.580   2.061  0.7506 -1.0635  0.7270
 1125SOL     OW 3329   2.503   0.953   1.576  0.5626 -0.7002 -0.2113
 1125SOL    HW1 3330   2.597   0.962   1.543  0.5038 -1.1280 -0.5229
 1125SOL    HW2 3331   2.441   0.999   1.512  0.6741  0.8870  0.7776
 1126SOL     OW 3332   1.281   0.035   1.379  0.0516 -0.2678  0.2583
 1126SOL    HW1 3333   1.198   0.068   1.423  0.3471  1.0398 -0.1397
 1126SOL    HW2 3334   1.356   0.098   1.398  0.7622 -0.9849 -0.1036
 1127SOL     OW 3335   3.646   2.150   2.021 -0.3370 -0.4333  0.0535
 1127SOL    HW1 3336   3.682   2.243   2.028  0.0823 -0.6742  1.2930
 1127SOL    HW2 3337   3.553   2.152   1.984 -0.1596  0.4357 -0.3531
 1128SOL     OW 3338   2.585   2.961   3.565  0.6125 -0.2443 -0.4313
 1128SOL    HW1 3339   2.489   2.984   3.581  1.0782 -0.1255  2.8795
 1128SOL    HW2 3340   2.620   3.018   3.491 -1.5555  0.4980 -0.9803
 1129SOL     OW 3341   2.481   0.909   3.114 -0.3167  0.1138  0.9762
 1129SOL    HW1 3342   2.405   0.890   3.175 -0.0646 -0.0661  1.2366
 1129SOL    HW2 3343   2.504   1.006   3.118 -2.2155  0.7311 -1.0551
 1130SOL     OW 3344   3.205   0.070   0.561 -0.3327 -0.0104  0.0540
 1130SOL    HW1 3345   3.285   0.092   0.617 -0.2508 -0.4872  0.1278
 1130SOL    HW2 3346   3.155  -0.006   0.602 -0.6202  0.0458 -0.1874
 1131SOL     OW 3347   2.144   0.029   1.063  0.2118  0.2776 -0.1256
 1131SOL    HW1 3348   2.230   0.080   1.061  0.6279 -0.3845  0.3294
 1131SOL    HW2 3349   2.140  -0.030   0.982 -0.1194  0.7795 -0.4820
 1132SOL     OW 3350   3.618   0.001   1.668  0.5331 -0.1356 -0.3845
 1132SOL    HW1 3351   3.649  -0.019   1.761  0.1973 -0.3041 -0.3070
 1132SOL    HW2 3352   3.521   0.027   1.670  0.6531  0.3429 -0.6287
 1133SOL     OW 3353   2.906   1.401   3.376 -0.0493 -0.3546  1.1726
 1133SOL    HW1 3354   2.820   1.416   3.328 -0.2043  1.3331  1.9003
 1133SOL    HW2 3355   2.959   1.330   3.329 -0.3221  0.9796 -1.3000
 1134SOL     OW 3356   1.933   1.903   0.592  0.2787  0.1621 -0.0690
 1134SOL    HW1 3357   1.990   1.918   0.511  0.3706  1.0242  0.1445
 1134SOL    HW2 3358   1.899   1.991   0.625 -0.3016 -0.2481  0.4433
 1135SOL     OW 3359   2.004   0.207   1.747 -0.0565  0.2131  0.0622
 1135SOL    HW1 3360   2.034   0.298   1.718 -0.0115  0.4665  0.8646
 1135SOL    HW2 3361   1.963   0.213   1.838 -0.5880 -0.4822 -0.1219
 1136SOL     OW 3362   3.009   0.551   0.452  0.6315 -0.3018  0.1292
 1136SOL    HW1 3363   3.051   0.460   0.455 -0.5400 -0.8614 -0.2734
 1136SOL    HW2 3364   2.920   0.548   0.496  0.2815  0.4933 -0.5047
 1137SOL     OW 3365   0.155   1.616   1.746 -0.1468  0.6444 -0.1339
 1137SOL    HW1 3366   0.242   1.574   1.721 -0.3068  0.4340 -0.3421
 1137SOL    HW2 3367   0.106   1.556   1.810 -0.5108  0.3714 -0.6678
 1138SOL     OW 3368   2.426   0.497   2.101 -0.2055  0.0538  0.1541
 1138SOL    HW1 3369   2.370   0.542   2.031 -0.0298 -0.1854 -0.1405
 1138SOL    HW2 3370   2.497   0.560   2.132  0.4839 -0.2544 -0.7673
 1139SOL     OW 3371   2.305   2.481   2.755  0.0547  0.2710 -0.2833
 1139SOL    HW1 3372   2.234   2.520   2.698  0.6059  1.0755 -0.4315
 1139SOL    HW2 3373   2.267   2.406   2.809 -0.6167 -0.0852 -1.2297
 1140SOL     OW 3374   1.636   2.943   3.013 -0.1483 -0.1409 -0.0353
 1140SOL    HW1 3375   1.644   3.011   3.086 -0.6531 -0.5277  0.3889
 1140SOL    HW2 3376   1.654   2.987   2.924  0.0949  0.4132  0.2819
 1141SOL     OW 3377   0.113   2.021   3.046  0.1021 -0.4759  1.0832
 1141SOL    HW1 3378   0.089   1.926   3.025  1.2535 -0.6973  0.6950
 1141SOL    HW2 3379   0.036   2.081   3.022 -0.0538 -1.1421 -0.1360
 1142SOL     OW 3380   3.245   2.656   1.124  0.0344  0.3510 -0.2146
 1142SOL    HW1 3381   3.293   2.614   1.047  1.0613  0.1335  0.5241
 1142SOL    HW2 3382   3.310   2.708   1.179 -0.6958  0.5583  0.4688
 1143SOL     OW 3383   2.773   1.182   1.700 -0.0488  0.0307  0.2834
 1143SOL    HW1 3384   2.795   1.110   1.766 -1.1563  1.0668  1.8668
 1143SOL    HW2 3385   2.699   1.239   1.737  0.2011  1.4562 -1.3082
 1144SOL     OW 3386   2.863   0.358   3.259  0.5458  0.4079 -0.5670
 1144SOL    HW1 3387   2.843   0.285   3.194 -2.2031 -0.6292  1.2405
 1144SOL    HW2 3388   2.929   0.326   3.326  0.4247  0.0856 -0.6024
 1145SOL     OW 3389   2.552   1.222   0.584  0.0061  0.0865 -0.3698
 1145SOL    HW1 3390   2.532   1.251   0.677 -0.9863  0.2305 -0.6155
 1145SOL    HW2 3391   2.593   1.298   0.533  2.0897 -0.4687  0.3842
 1146SOL     OW 3392   3.367   1.575   0.764 -0.0070 -0.5163  0.0590
 1146SOL    HW1 3393   3.450   1.630   0.770 -0.0552 -0.5007  0.6023
 1146SOL    HW2 3394   3.306   1.597   0.840 -0.8938  0.0856 -0.8072
 1147SOL     OW 3395   1.985   3.169   0.111 -0.1187  0.3997  0.1645
 1147SOL    HW1 3396   2.031   3.255   0.135 -1.1890  0.8538  0.6617
 1147SOL    HW2 3397   1.923   3.142   0.185 -1.0166  0.0763 -0.6788
 1148SOL     OW 3398   0.417   1.326   1.930 -0.1492 -0.1654 -0.7174
 1148SOL    HW1 3399   0.428   1.389   1.853 -0.5179  2.1992  1.0502
 1148SOL    HW2 3400   0.328   1.341   1.972  0.5018 -0.5358  0.8672
 1149SOL     OW 3401   3.131  -0.008   2.614  0.1449  0.3368  0.3586
 1149SOL    HW1 3402   3.202   0.020   2.678 -0.8796  1.6215  0.9804
 1149SOL    HW2 3403   3.154   0.023   2.522  1.1222 -0.6183  0.2648
 1150SOL     OW 3404   0.933   0.726   0.155 -0.1333  0.1645  0.4629
 1150SOL    HW1 3405   1.008   0.787   0.131  0.9521 -0.2700  2.4739
 1150SOL    HW2 3406   0.947   0.637   0.111 -0.9885  0.8940 -1.3693
 1151SOL     OW 3407   2.713   2.039   3.104  0.3915 -0.0359  0.6127
 1151SOL    HW1 3408   2.634   2.094   3.076 -0.0603 -1.0323 -0.1325
 1151SOL    HW2 3409   2.772   2.094   3.164 -0.2153  1.1346  0.1756
 1152SOL     OW 3410   1.063   1.006   2.902  0.4993  0.3377 -0.4157
 1152SOL    HW1 3411   1.078   0.949   2.821 -1.5097  0.1139 -0.6866
 1152SOL    HW2 3412   0.997   0.961   2.962  0.4793  1.4121  0.3918
 1153SOL     OW 3413   0.295   1.636   2.623 -0.1230 -0.5764 -0.4763
 1153SOL    HW1 3414   0.282   1.728   2.586 -3.0272 -1.3183 -1.5918
 1153SOL    HW2 3415   0.258   1.632   2.716  0.8751 -0.4202 -0.0580
 1154SOL     OW 3416   1.840   0.134   2.895 -0.4911  0.3805  0.3948
 1154SOL    HW1 3417   1.930   0.094   2.913 -1.3385 -1.3805  1.0028
 1154SOL    HW2 3418   1.790   0.141   2.981 -1.6424 -0.5481 -0.1745
 1155SOL     OW 3419   2.940   0.056   1.181 -0.0295  0.0702 -0.5338
 1155SOL    HW1 3420   2.947   0.122   1.255  0.1446 -0.5483  0.0048
 1155SOL    HW2 3421   2.874  -0.015   1.206  1.1743 -0.9966 -0.3039
 1156SOL     OW 3422   2.088   1.159   3.629 -0.5244  0.2602 -0.5074
 1156SOL    HW1 3423   2.174   1.152   3.579  1.2644  1.1390  2.2130
 1156SOL    HW2 3424   2.080   1.250   3.669 -2.9574  0.3274 -0.9539
 1157SOL     OW 3425   0.270   1.390   2.174  0.4379 -0.3607 -0.4444
 1157SOL    HW1 3426   0.301   1.485   2.181 -0.8500  0.0071  1.0374
 1157SOL    HW2 3427   0.340   1.330   2.211  0.5206  0.2047  0.3536
 1158SOL     OW 3428   2.983   0.872   2.515 -0.1966 -0.0535  0.0527
 1158SOL    HW1 3429   2.982   0.776   2.488  0.6888  0.2270 -1.0511
 1158SOL    HW2 3430   3.064   0.890   2.570 -0.3337  0.0821  0.2118
 1159SOL     OW 3431   3.444   0.137   1.337  0.5720 -0.0621 -0.3779
 1159SOL    HW1 3432   3.350   0.158   1.307  0.2731 -1.1267 -0.2044
 1159SOL    HW2 3433   3.461   0.181   1.425  0.4158  0.5699 -0.6579
 1160SOL     OW 3434   3.657   0.760   2.165 -0.3357  1.1803  0.1516
 1160SOL    HW1 3435   3.662   0.774   2.066 -1.0941  1.0817  0.0951
 1160SOL    HW2 3436   3.606   0.677   2.185  0.0233  1.0655  0.6250
 1161SOL     OW 3437   0.458   0.586   1.971 -0.1131  0.2316  0.1959
 1161SOL    HW1 3438   0.411   0.649   2.033  1.4008  0.9333  0.6997
 1161SOL    HW2 3439   0.492   0.507   2.023  0.9043  0.6783  0.2374
 1162SOL     OW 3440   0.966   1.022   2.348 -0.3000  0.3333  0.7234
 1162SOL    HW1 3441   1.066   1.023   2.342 -0.3767  0.9147 -0.7724
 1162SOL    HW2 3442   0.930   1.113   2.328 -1.1308  0.2277  1.6391
 1163SOL     OW 3443   3.327   1.514   2.845  0.4599 -0.2672  0.0996
 1163SOL    HW1 3444   3.415   1.467   2.836  0.4107 -0.2293 -0.6191
 1163SOL    HW2 3445   3.255   1.455   2.809  0.1414 -0.4217  0.9613
 1164SOL     OW 3446   1.102   0.277   2.368  0.2793  0.0785 -0.3872
 1164SOL    HW1 3447   1.044   0.301   2.290 -1.9926  2.5625  1.8608
 1164SOL    HW2 3448   1.168   0.350   2.384  0.1548  0.0188  0.4819
 1165SOL     OW 3449   3.568   2.583   1.881 -0.2157  0.4386 -0.6694
 1165SOL    HW1 3450   3.470   2.595   1.892 -0.3159 -0.7345 -0.2052
 1165SOL    HW2 3451   3.611   2.672   1.866 -1.1926  1.1044  0.3428
 1166SOL     OW 3452   3.258   0.071   2.086 -0.0553  0.3245  0.0366
 1166SOL    HW1 3453   3.233   0.012   2.008 -0.4103 -0.3356  0.6358
 1166SOL    HW2 3454   3.266   0.165   2.055 -2.3462  0.4395 -0.4064
 1167SOL     OW 3455   2.569   1.818   3.205  0.1587  0.2410 -0.2856
 1167SOL    HW1 3456   2.629   1.890   3.169  0.8698  0.6394  1.5784
 1167SOL    HW2 3457   2.504   1.858   3.269 -1.9307 -0.2532 -1.9740
 1168SOL     OW 3458   0.149   0.984   1.012  0.0988  0.0038 -0.1562
 1168SOL    HW1 3459   0.078   0.913   1.013  1.2247 -1.1855 -1.1843
 1168SOL    HW2 3460   0.237   0.944   1.036  0.7826  1.0160 -0.8801
 1169SOL     OW 3461   1.897   1.055   2.863 -0.3248 -0.5546 -0.4430
 1169SOL    HW1 3462   1.973   1.095   2.812  0.9570 -3.3148 -0.9286
 1169SOL    HW2 3463   1.925   1.037   2.957 -0.7038 -0.7076 -0.3559
 1170SOL     OW 3464   2.893   1.263   2.051  0.4389  0.3446  0.1870
 1170SOL    HW1 3465   2.935   1.193   1.994  0.3215  0.1255  0.3677
 1170SOL    HW2 3466   2.902   1.352   2.007  2.6888  0.6046  1.0400
 1171SOL     OW 3467   2.902   1.135   2.511  0.2738 -0.5630  0.1808
 1171SOL    HW1 3468   2.958   1.055   2.493  1.3867 -0.0862  1.3725
 1171SOL    HW2 3469   2.952   1.218   2.483 -0.5459 -0.2176 -0.3237
 1172SOL     OW 3470   2.782   0.914   2.712  0.0535 -0.3445  0.2508
 1172SOL    HW1 3471   2.769   1.009   2.741  0.4849 -0.0032 -0.6319
 1172SOL    HW2 3472   2.861   0.909   2.650 -0.5273 -1.1299 -0.4422
 1173SOL     OW 3473   2.364   1.930   3.659 -0.2654 -0.0660  0.2937
 1173SOL    HW1 3474   2.284   1.988   3.675  0.0127  0.6343 -0.7269
 1173SOL    HW2 3475   2.385   1.879   3.742 -1.1836  0.4738  0.8785
 1174SOL     OW 3476   3.672   1.138   2.485  0.1226 -0.1329 -0.1548
 1174SOL    HW1 3477   3.676   1.053   2.538  1.6691  0.9111  1.5290
 1174SOL    HW2 3478   3.708   1.122   2.394 -0.9798 -1.5890 -0.3729
 1175SOL     OW 3479   3.569   0.436   1.965  0.4635 -0.2088  0.0980
 1175SOL    HW1 3480   3.547   0.466   2.058  1.2058 -0.8161  0.4790
 1175SOL    HW2 3481   3.541   0.507   1.900  2.4030  1.5013  0.9793
 1176SOL     OW 3482   3.044   1.884   1.477 -0.6178 -0.2028  0.6410
 1176SOL    HW1 3483   3.013   1.865   1.570  0.9439  2.2701  1.7830
 1176SOL    HW2 3484   3.027   1.980   1.456  2.2742  0.2163 -0.2000
 1177SOL     OW 3485   2.616   1.365   1.245 -0.2127  0.3348 -0.0353
 1177SOL    HW1 3486   2.703   1.381   1.293 -0.8736  1.1245  0.9357
 1177SOL    HW2 3487   2.547   1.336   1.311 -0.6826 -0.3405 -0.8140
 1178SOL     OW 3488   2.299   0.666   1.054 -0.2677 -0.3565  0.1699
 1178SOL    HW1 3489   2.384   0.618   1.072 -1.6203 -2.5481  1.0965
 1178SOL    HW2 3490   2.287   0.678   0.955  1.6656  1.1834  0.0558
 1179SOL     OW 3491   2.416   3.468   2.021  0.5945 -0.3112  0.5067
 1179SOL    HW1 3492   2.407   3.441   2.117 -0.9397  0.0370  0.4896
 1179SOL    HW2 3493   2.513   3.471   1.996  1.0448  0.0406  2.1690
 1180SOL     OW 3494   0.043   0.772   0.116  0.1898  0.2072 -0.3501
 1180SOL    HW1 3495   0.138   0.804   0.125  0.1125  1.5322 -3.1964
 1180SOL    HW2 3496  -0.018   0.851   0.115 -0.9659 -0.6252  1.2353
 1181SOL     OW 3497   2.279   0.887   3.305 -0.0166  0.5301  0.0291
 1181SOL    HW1 3498   2.301   0.892   3.402 -0.5118 -1.1803  0.2552
 1181SOL    HW2 3499   2.272   0.980   3.268  1.5637  1.2113  1.2787
 1182SOL     OW 3500   2.863   1.166   2.852  0.0189 -0.3534  0.3206
 1182SOL    HW1 3501   2.826   1.219   2.775  1.1185  0.2539  0.1866
 1182SOL    HW2 3502   2.957   1.196   2.871 -0.3124 -0.2996  2.0688
 1183SOL     OW 3503   3.113   0.849   2.957 -0.5669  0.6481  0.4371
 1183SOL    HW1 3504   3.106   0.756   2.919 -0.6284  0.9478 -0.3027
 1183SOL    HW2 3505   3.024   0.876   2.994 -1.4401  1.5252 -2.0435
 1184SOL     OW 3506   0.474   1.850   2.884 -0.0177 -0.2545  0.0270
 1184SOL    HW1 3507   0.539   1.865   2.809 -1.6603  0.5550 -1.3000
 1184SOL    HW2 3508   0.496   1.912   2.960  0.3769  0.4767 -0.6632
 1185SOL     OW 3509   2.577   0.375   1.919  0.5337 -0.2608  0.3818
 1185SOL    HW1 3510   2.523   0.378   1.834  1.3289 -0.7823 -0.1589
 1185SOL    HW2 3511   2.518   0.398   1.997 -0.1414  0.5394 -0.3378
 1186SOL     OW 3512   1.677   0.262   3.412  0.2971  0.6406 -0.0227
 1186SOL    HW1 3513   1.577   0.271   3.419  0.4645  2.0176  1.2153
 1186SOL    HW2 3514   1.706   0.178   3.458 -0.4305 -0.9409 -2.2699
 1187SOL     OW 3515   3.216   1.448   1.791  0.0235 -0.0523 -0.1240
 1187SOL    HW1 3516   3.150   1.393   1.739 -0.3599 -0.0085  0.3091
 1187SOL    HW2 3517   3.301   1.457   1.738  0.3650 -1.6810  0.1104
 1188SOL     OW 3518   3.470   0.744   2.469 -0.0942  0.4994 -0.4162
 1188SOL    HW1 3519   3.501   0.666   2.414 -0.9880  0.2644 -0.6136
 1188SOL    HW2 3520   3.400   0.713   2.533 -1.5884  1.3962 -1.5551
 1189SOL     OW 3521   2.902   3.236   2.997 -0.2495 -0.2368 -0.4566
 1189SOL    HW1 3522   2.927   3.197   2.908  0.6445  0.3966 -0.4924
 1189SOL    HW2 3523   2.892   3.335   2.988  0.6271 -0.0624  0.3038
 1190SOL     OW 3524   1.413   2.180   0.652  0.2818 -0.3222 -0.2242
 1190SOL    HW1 3525   1.408   2.273   0.616 -0.3534 -0.2954 -0.0941
 1190SOL    HW2 3526   1.404   2.183   0.752 -1.3129 -0.6103 -0.3238
 1191SOL     OW 3527   0.192   3.106   0.890  0.3265  0.4279 -0.2719
 1191SOL    HW1 3528   0.271   3.128   0.946  1.4227 -0.8593 -1.2328
 1191SOL    HW2 3529   0.111   3.098   0.948  1.1128  0.7068  0.8891
 1192SOL     OW 3530   2.303   1.268   2.125  0.2448 -0.4061 -0.7026
 1192SOL    HW1 3531   2.396   1.301   2.142  0.5447  0.6721 -3.8099
 1192SOL    HW2 3532   2.288   1.260   2.027 -2.7469 -1.2590 -0.2693
 1193SOL     OW 3533   0.614   1.740   3.536  0.2665 -0.0069  0.1235
 1193SOL    HW1 3534   0.700   1.716   3.491 -0.1740  1.5647 -1.6646
 1193SOL    HW2 3535   0.551   1.779   3.470 -1.2528  0.3848  1.7216
 1194SOL     OW 3536   3.629   1.569   2.398 -0.5183  0.0620 -0.0589
 1194SOL    HW1 3537   3.560   1.585   2.469 -1.1209  0.2604 -0.6733
 1194SOL    HW2 3538   3.675   1.656   2.377  0.4621 -0.2116  0.8833
 1195SOL     OW 3539   1.994   3.636   1.809  0.6738  0.0733 -0.2262
 1195SOL    HW1 3540   1.982   3.735   1.806 -1.4307 -0.1190  0.1087
 1195SOL    HW2 3541   1.986   3.599   1.716  1.6111  0.2201 -0.3705
 1196SOL     OW 3542   2.641   0.978   0.672  0.1433 -0.3816 -0.6850
 1196SOL    HW1 3543   2.737   1.005   0.666  0.1095 -0.1481 -0.2063
 1196SOL    HW2 3544   2.588   1.029   0.604  0.1626  0.4085 -0.1291
 1197SOL     OW 3545   0.978   0.526   1.966  0.0075  0.4249  0.0954
 1197SOL    HW1 3546   0.983   0.436   1.923  1.2118  0.0943  0.8531
 1197SOL    HW2 3547   1.051   0.584   1.931 -0.0496  0.7167  0.4479
 1198SOL     OW 3548   1.465   0.138   2.670 -0.2841  0.0323 -0.4547
 1198SOL    HW1 3549   1.449   0.092   2.582  0.2203 -0.9229 -0.0553
 1198SOL    HW2 3550   1.451   0.073   2.745  0.7723  0.4363  0.1079
 1199SOL     OW 3551   2.054   3.344   2.200  0.3001  0.2037 -0.4705
 1199SOL    HW1 3552   1.967   3.318   2.158 -0.4388 -1.0155  1.6492
 1199SOL    HW2 3553   2.119   3.269   2.189  0.0910 -0.1374  0.5100
 1200SOL     OW 3554   2.673   2.455   2.935  0.8720 -0.2386 -0.3025
 1200SOL    HW1 3555   2.739   2.515   2.891 -0.7826  0.7818 -1.5256
 1200SOL    HW2 3556   2.620   2.507   3.003  0.4666 -0.7076 -0.2468
 1201SOL     OW 3557   1.441  -0.021   0.316  0.1771 -0.2705 -0.1661
 1201SOL    HW1 3558   1.430   0.069   0.358  0.2699 -0.3529  0.0328
 1201SOL    HW2 3559   1.538  -0.034   0.292  0.4303 -0.8986  1.1100
 1202SOL     OW 3560   2.979   0.610   2.452 -0.6715 -0.3009 -0.0423
 1202SOL    HW1 3561   3.035   0.555   2.390 -0.4649 -0.6230  0.4250
 1202SOL    HW2 3562   2.907   0.553   2.491 -1.6350  0.2189 -1.0003
 1203SOL     OW 3563   2.340   1.533   1.307 -0.1305 -0.5457  0.2692
 1203SOL    HW1 3564   2.321   1.520   1.404  1.5048  0.5055  0.7706
 1203SOL    HW2 3565   2.350   1.444   1.262 -0.5480 -1.0369  1.1226
 1204SOL     OW 3566   1.930   0.517   3.096  0.0358 -0.0147 -0.1362
 1204SOL    HW1 3567   1.866   0.505   3.172 -1.0167  0.3477 -0.9398
 1204SOL    HW2 3568   2.007   0.572   3.127 -0.6847  0.6609  0.5204
 1205SOL     OW 3569   1.998   0.921   3.433  0.5507 -0.1988 -0.9462
 1205SOL    HW1 3570   1.939   0.900   3.355  0.1831  0.1675 -0.7670
 1205SOL    HW2 3571   2.001   1.020   3.448 -1.8699 -0.3781  1.3922
 1206SOL     OW 3572   2.534   1.415   2.150 -0.6315 -0.5394 -0.0310
 1206SOL    HW1 3573   2.513   1.496   2.094 -0.6260  0.5596  1.5079
 1206SOL    HW2 3574   2.633   1.407   2.161 -0.6252 -0.8438 -0.2738
 1207SOL     OW 3575   0.765   1.258   2.895 -0.4004 -0.0901 -0.6411
 1207SOL    HW1 3576   0.783   1.181   2.833  0.0939 -0.3158 -0.2231
 1207SOL    HW2 3577   0.785   1.344   2.848  1.5723 -0.3138 -0.2840
 1208SOL     OW 3578   2.071   0.811   2.907 -0.2284  0.2287 -0.1996
 1208SOL    HW1 3579   2.153   0.868   2.903 -0.6673  0.8883  0.0106
 1208SOL    HW2 3580   2.067   0.766   2.996  0.2989 -0.4146 -0.4934
 1209SOL     OW 3581   0.372   1.068   2.282  0.3650 -0.0380 -0.2851
 1209SOL    HW1 3582   0.277   1.059   2.251 -0.1047  0.5317  0.8862
 1209SOL    HW2 3583   0.392   0.997   2.350  0.4072  0.5077  0.2854
 1210SOL     OW 3584   3.336   1.441   2.197  0.1094  0.2045 -0.4332
 1210SOL    HW1 3585   3.339   1.451   2.297  1.1865  0.1366 -0.4546
 1210SOL    HW2 3586   3.332   1.344   2.174  2.0749  0.1034 -0.4849
 1211SOL     OW 3587   2.359   1.475   3.392  0.0173 -0.3229 -0.1361
 1211SOL    HW1 3588   2.314   1.498   3.306  0.8719  1.4736 -0.1552
 1211SOL    HW2 3589   2.333   1.540   3.463  1.0624 -0.4023  0.3539
 1212SOL     OW 3590   2.837   2.541   3.548  0.4723  0.1910 -0.4334
 1212SOL    HW1 3591   2.920   2.502   3.508 -0.2959 -0.7539 -1.1440
 1212SOL    HW2 3592   2.799   2.478   3.615  0.1506  0.4800 -0.3404
 1213SOL     OW 3593   2.683   0.795   3.302  0.1227 -0.1549  0.3425
 1213SOL    HW1 3594   2.609   0.832   3.247 -0.0543 -2.8155 -1.3796
 1213SOL    HW2 3595   2.758   0.861   3.305 -1.5175  1.7999  0.5455
 1214SOL     OW 3596   3.191   0.163   1.241 -0.2854 -0.1778 -0.3729
 1214SOL    HW1 3597   3.123   0.235   1.254 -1.0731 -1.4194  3.9197
 1214SOL    HW2 3598   3.151   0.089   1.186 -1.5062  0.2528 -0.0953
 1215SOL     OW 3599   2.376   0.261   1.181 -0.0767 -0.1600 -0.3803
 1215SOL    HW1 3600   2.421   0.341   1.141 -0.8518 -0.8598 -2.8009
 1215SOL    HW2 3601   2.287   0.287   1.217 -0.5781 -0.0131 -1.6906
 1216SOL     OW 3602   3.219   2.979   2.713  0.2062 -0.0577 -0.1716
 1216SOL    HW1 3603   3.184   2.908   2.651 -1.4788  1.4182 -1.0036
 1216SOL    HW2 3604   3.314   2.999   2.690 -0.1434 -0.1057 -1.7941
 1217SOL     OW 3605   2.799   1.464   2.346 -0.1197 -0.1231 -0.1381
 1217SOL    HW1 3606   2.893   1.436   2.366 -0.0160 -0.2020 -0.7076
 1217SOL    HW2 3607   2.761   1.511   2.425  0.9122  1.2546 -0.4199
 1218SOL     OW 3608   1.230   0.023   2.999  0.3578 -0.1453  0.2747
 1218SOL    HW1 3609   1.209  -0.012   3.090 -0.7988 -1.3922 -0.4506
 1218SOL    HW2 3610   1.210   0.121   2.996 -1.8033 -0.5264  0.7379
 1219SOL     OW 3611   2.919   0.631   3.250  1.0187 -0.0105 -0.0970
 1219SOL    HW1 3612   2.839   0.662   3.199  1.6009  1.1736 -0.3407
 1219SOL    HW2 3613   2.909   0.535   3.273 -0.3364  0.0417 -0.3746
 1220SOL     OW 3614   2.756   2.631   2.062 -0.1789 -0.3287  0.1744
 1220SOL    HW1 3615   2.852   2.659   2.066 -0.0685 -0.6241 -0.2729
 1220SOL    HW2 3616   2.730   2.585   2.147  0.7217 -2.2659 -0.5552
 1221SOL     OW 3617   3.132   0.270   2.496  0.5244 -0.5970  0.2695
 1221SOL    HW1 3618   3.203   0.330   2.460  0.1635 -1.2885 -1.6973
 1221SOL    HW2 3619   3.052   0.272   2.435 -1.1558  0.0952  2.3509
 1222SOL     OW 3620   2.277   1.308   2.975  0.0726  0.1964 -0.4658
 1222SOL    HW1 3621   2.213   1.267   2.911  2.2241 -2.0405 -1.3327
 1222SOL    HW2 3622   2.368   1.314   2.933  0.8265  1.8585  1.2194
 1223SOL     OW 3623   2.824   2.708   2.500  0.4042 -0.0769  0.0356
 1223SOL    HW1 3624   2.815   2.637   2.430  0.5456  1.2094 -1.3198
 1223SOL    HW2 3625   2.736   2.752   2.516  1.0981  2.5988 -2.6141
 1224SOL     OW 3626   0.272   1.732   3.600 -0.3428  0.5713  0.1151
 1224SOL    HW1 3627   0.348   1.712   3.662 -0.7344 -0.8063  0.1881
 1224SOL    HW2 3628   0.186   1.729   3.651 -0.7968 -1.7983 -0.6351
 1225SOL     OW 3629   1.952   2.032   3.066 -0.0068 -0.8149 -0.8588
 1225SOL    HW1 3630   1.957   1.970   3.144  2.9668 -0.4670 -0.6687
 1225SOL    HW2 3631   1.962   2.126   3.097  1.2732 -0.6752 -1.6143
 1226SOL     OW 3632   2.753   1.608   2.864  0.2346 -0.2746 -0.1814
 1226SOL    HW1 3633   2.681   1.677   2.871 -1.7414 -1.9328 -2.2768
 1226SOL    HW2 3634   2.776   1.574   2.955 -2.4878 -0.4457  0.5436
 1227SOL     OW 3635   0.340   0.327   2.826  0.1885 -0.0818  0.8087
 1227SOL    HW1 3636   0.334   0.328   2.726  3.2439 -1.7599  0.4569
 1227SOL    HW2 3637   0.261   0.279   2.864 -0.6854 -0.0207 -0.8362
 1228SOL     OW 3638   3.167   0.943   2.718  0.5867 -0.4919 -0.1937
 1228SOL    HW1 3639   3.248   0.892   2.689  1.2947  0.4207  0.1304
 1228SOL    HW2 3640   3.127   0.898   2.798  1.6891 -0.0917  0.6023
 1229SOL     OW 3641   0.325   0.911   2.702 -0.0520 -0.1172  0.0894
 1229SOL    HW1 3642   0.268   0.831   2.688 -0.0091 -0.1224 -0.0539
 1229SOL    HW2 3643   0.392   0.892   2.775 -0.0608 -0.2012  0.0756
 1230SOL     OW 3644   2.594   1.541   0.852  0.3877  0.7614 -0.4998
 1230SOL    HW1 3645   2.603   1.612   0.782  1.0906 -0.5697 -1.8360
 1230SOL    HW2 3646   2.512   1.557   0.906  0.4721  2.5074 -0.8387
 1231SOL     OW 3647   3.331   1.123   2.347 -0.0547 -0.8541  0.3495
 1231SOL    HW1 3648   3.364   1.156   2.436 -0.0343 -3.3388  1.3579
 1231SOL    HW2 3649   3.246   1.169   2.324  1.1997  1.6558  0.3904
 1232SOL     OW 3650   3.462   2.389   0.668  0.1487 -0.0450  0.2281
 1232SOL    HW1 3651   3.460   2.398   0.569  0.9463  1.3950  0.3156
 1232SOL    HW2 3652   3.504   2.301   0.693  1.7430  0.4121 -0.7165
 1233SOL     OW 3653   2.771   0.455   2.520  0.6116 -0.6192  0.0881
 1233SOL    HW1 3654   2.744   0.507   2.601  3.0036 -0.0495  0.6150
 1233SOL    HW2 3655   2.720   0.487   2.440 -0.1947  0.3660  0.9748
 1234SOL     OW 3656   3.035   1.391   2.497 -0.6185  0.4778 -0.0596
 1234SOL    HW1 3657   3.019   1.398   2.596 -2.0089  1.9193 -0.3657
 1234SOL    HW2 3658   3.126   1.427   2.476 -0.4277  0.4247  0.6402
 1235SOL     OW 3659   2.651   1.137   3.193  0.2986 -0.2603 -0.2437
 1235SOL    HW1 3660   2.664   1.234   3.171 -0.4833  0.1264  0.9174
 1235SOL    HW2 3661   2.681   1.120   3.287  0.4259 -1.1569 -0.4389
 1236SOL     OW 3662   2.471   1.658   1.993 -0.3384 -0.3193  0.1386
 1236SOL    HW1 3663   2.424   1.658   1.905 -1.5806 -1.4968  0.7594
 1236SOL    HW2 3664   2.559   1.705   1.985  0.7827 -2.5721 -2.3881
 1237SOL     OW 3665   0.467   0.893   3.630  0.4294  0.3850 -0.5134
 1237SOL    HW1 3666   0.500   0.987   3.634  1.1577  0.1072  1.7551
 1237SOL    HW2 3667   0.545   0.830   3.631 -0.0231 -0.2886 -2.5886
 1238SOL     OW 3668   0.629   2.580   2.949  0.5993 -0.2656 -0.0128
 1238SOL    HW1 3669   0.594   2.493   2.985  0.8098 -0.8824 -1.2228
 1238SOL    HW2 3670   0.639   2.646   3.023  0.4345 -1.2755  0.9299
 1239SOL     OW 3671   1.852   1.557   2.477  0.1685 -0.3949 -0.3576
 1239SOL    HW1 3672   1.809   1.632   2.427 -2.1489 -0.1690  1.7871
 1239SOL    HW2 3673   1.807   1.471   2.454 -1.9204 -0.1033  2.2062
 1240SOL     OW 3674   2.696   0.042   0.704 -0.2477 -0.5089 -0.1570
 1240SOL    HW1 3675   2.678  -0.051   0.674 -0.1577  0.1636 -2.4900
 1240SOL    HW2 3676   2.721   0.042   0.801  0.5130 -2.9813 -0.2937
 1241SOL     OW 3677   3.510   1.179   2.841  0.3075  0.1492  0.1412
 1241SOL    HW1 3678   3.608   1.174   2.862  0.1556  0.4699  0.9904
 1241SOL    HW2 3679   3.462   1.105   2.889 -0.4834  2.7107  3.7591
 1242SOL     OW 3680   3.027   2.160   2.826 -0.8245  0.7958 -0.0400
 1242SOL    HW1 3681   2.997   2.216   2.903 -0.8983  0.8889 -0.1372
 1242SOL    HW2 3682   2.959   2.089   2.808 -0.7495  0.6981  0.0577
 1243SOL     OW 3683   2.440   3.601   3.502  0.5762 -0.3788 -0.0311
 1243SOL    HW1 3684   2.432   3.693   3.465  0.3738 -0.8248 -1.1324
 1243SOL    HW2 3685   2.393   3.596   3.591 -0.4960  0.2545 -0.5520
 1244SOL     OW 3686   3.505   0.512   2.779  0.0954  0.3144  0.2103
 1244SOL    HW1 3687   3.588   0.540   2.827 -0.7085  0.8298  1.3625
 1244SOL    HW2 3688   3.472   0.426   2.818  0.5224 -0.3229 -0.8018
 1245SOL     OW 3689   2.193   1.154   3.227 -0.2898 -0.0073  0.4265
 1245SOL    HW1 3690   2.239   1.206   3.155 -2.7451  3.3276  1.0045
 1245SOL    HW2 3691   2.098   1.135   3.200 -0.1967 -2.0581  1.3336
 1246SOL     OW 3692   2.236   0.671   1.986  0.2209  0.1358  0.0039
 1246SOL    HW1 3693   2.148   0.628   2.007  0.0202  0.7536  0.4496
 1246SOL    HW2 3694   2.220   0.763   1.951  0.7161  0.4929  0.6967
 1247SOL     OW 3695   0.136   2.253   2.425  0.1084  0.4369  0.2653
 1247SOL    HW1 3696   0.071   2.328   2.416  0.3405  0.4875 -1.3469
 1247SOL    HW2 3697   0.211   2.266   2.360  1.8566  0.4680  2.2180
 1248SOL     OW 3698   3.403   2.529   3.207  0.6957 -0.0609 -0.1460
 1248SOL    HW1 3699   3.338   2.453   3.200  1.1704 -0.4409 -0.5444
 1248SOL    HW2 3700   3.458   2.517   3.289  1.4749 -0.7295 -0.7461
 1249SOL     OW 3701   1.827   3.614   3.176 -0.4706 -0.9047  0.6941
 1249SOL    HW1 3702   1.827   3.714   3.173 -1.9760 -0.8427  1.8335
 1249SOL    HW2 3703   1.854   3.584   3.268  1.6510 -1.6146 -0.1058
 1250SOL     OW 3704   3.429   0.828   1.893 -0.7205  0.1205  0.1590
 1250SOL    HW1 3705   3.387   0.913   1.861 -0.6994  1.3087  2.9965
 1250SOL    HW2 3706   3.528   0.839   1.897 -0.4107 -1.1459 -2.2729
 1251SOL     OW 3707   3.578   0.808   2.850 -0.6465 -0.4704  0.1230
 1251SOL    HW1 3708   3.603   0.851   2.764 -1.5404 -1.3927 -0.6336
 1251SOL    HW2 3709   3.634   0.726   2.865 -0.3248 -0.1792  0.5533
 1252SOL     OW 3710   3.384   1.266   3.226 -0.2481  0.3416 -0.5636
 1252SOL    HW1 3711   3.479   1.271   3.255 -0.6516  0.3033  0.8113
 1252SOL    HW2 3712   3.354   1.357   3.195  0.2192  0.3519 -1.0113
 1253SOL     OW 3713  -0.009   0.819   1.904 -0.2651 -0.1256  0.0958
 1253SOL    HW1 3714   0.004   0.764   1.821  0.0585 -0.9019  0.6491
 1253SOL    HW2 3715   0.072   0.876   1.919  0.0968 -0.7163  0.4121
 1254SOL     OW 3716   1.362   0.967   0.049 -0.5994 -0.4448 -0.6573
 1254SOL    HW1 3717   1.324   1.040  -0.007  1.1057  0.4584 -0.6968
 1254SOL    HW2 3718   1.456   0.948   0.021 -1.1375 -3.0388 -0.9836
 1255SOL     OW 3719   2.048   1.694   3.041 -0.0901 -0.1563 -0.4979
 1255SOL    HW1 3720   1.983   1.623   3.067 -2.1456  1.8921  0.3826
 1255SOL    HW2 3721   2.035   1.718   2.945 -1.3846  0.8950 -0.0904
 1256SOL     OW 3722   3.082   1.254   3.257 -0.4300  0.3775 -0.1234
 1256SOL    HW1 3723   3.157   1.270   3.320 -0.8451  0.9752  0.2255
 1256SOL    HW2 3724   3.118   1.213   3.173  0.2650  0.5353  0.0885
 1257SOL     OW 3725   2.876   0.964   3.065  0.0834  0.3061  0.1980
 1257SOL    HW1 3726   2.801   0.996   3.124 -0.2907  1.2049 -0.7396
 1257SOL    HW2 3727   2.867   1.005   2.975  1.3274 -0.1279 -0.1382
 1258SOL     OW 3728   2.720   3.554   2.114 -0.1173 -0.2789 -0.5385
 1258SOL    HW1 3729   2.770   3.569   2.199  0.5906 -1.8029 -0.6650
 1258SOL    HW2 3730   2.683   3.642   2.081  1.0856  0.6106  0.3986
 1259SOL     OW 3731   3.480   3.625   3.258 -0.0990 -0.2248  0.3568
 1259SOL    HW1 3732   3.410   3.617   3.329  0.2361 -0.6008  0.6480
 1259SOL    HW2 3733   3.524   3.536   3.244  0.6735  0.1161  0.5368
 1260SOL     OW 3734   2.608   0.604   2.306  0.4264  0.3609 -0.2989
 1260SOL    HW1 3735   2.525   0.635   2.352  0.3718  1.3227 -1.0239
 1260SOL    HW2 3736   2.668   0.682   2.289  0.8920 -0.1273 -0.9478
 1261SOL     OW 3737   2.588   1.718   0.646 -0.1540 -0.0909 -0.1153
 1261SOL    HW1 3738   2.574   1.658   0.567  1.8547 -0.8596  0.0491
 1261SOL    HW2 3739   2.607   1.811   0.615 -0.4437 -0.1580 -0.4975
 1262SOL     OW 3740   1.259   0.835   0.505 -0.8267  0.0438 -0.0864
 1262SOL    HW1 3741   1.195   0.909   0.524  0.1237  0.8563  0.0205
 1262SOL    HW2 3742   1.239   0.758   0.566 -0.7956  0.8397  0.9643
 1263SOL     OW 3743   2.155   0.828   1.539  0.4581 -0.7447  0.4366
 1263SOL    HW1 3744   2.188   0.899   1.477  0.3694 -1.3596 -0.3265
 1263SOL    HW2 3745   2.179   0.738   1.503 -1.3286 -1.1836  0.2740
 1264SOL     OW 3746   0.016   0.560   2.944 -0.5109  0.7811 -0.6621
 1264SOL    HW1 3747   0.015   0.624   3.021  0.2114  0.7847 -0.6537
 1264SOL    HW2 3748   0.036   0.468   2.977 -0.8664  0.6624 -0.7667
 1265SOL     OW 3749   1.353   1.205   2.758  0.1208 -0.6736  0.2644
 1265SOL    HW1 3750   1.256   1.193   2.734 -0.2364  0.7378  0.8762
 1265SOL    HW2 3751   1.382   1.297   2.731  1.1020 -0.8417  0.7129
 1266SOL     OW 3752   0.310   1.880   2.329 -0.0278 -0.2160  0.1540
 1266SOL    HW1 3753   0.295   1.888   2.428  1.6816 -2.5286  0.6911
 1266SOL    HW2 3754   0.364   1.958   2.298  1.5113 -0.6224  1.6044
 1267SOL     OW 3755   0.764   1.638   0.630 -0.2162 -0.0686  0.1691
 1267SOL    HW1 3756   0.830   1.703   0.668  0.7188 -0.1730 -1.1742
 1267SOL    HW2 3757   0.676   1.649   0.675  0.9453 -0.6065  2.7405
 1268SOL     OW 3758   0.509   3.324   1.990  0.1832  0.7155 -0.1765
 1268SOL    HW1 3759   0.590   3.375   2.019  1.9597 -1.2795 -1.3126
 1268SOL    HW2 3760   0.512   3.307   1.892 -0.2941 -1.5069  0.1236
 1269SOL     OW 3761   2.713   0.589   2.741 -0.0635 -0.6162  0.2951
 1269SOL    HW1 3762   2.726   0.631   2.831 -1.2561 -0.9401  0.6373
 1269SOL    HW2 3763   2.636   0.525   2.745  1.4526 -2.5553 -0.3293
 1270SOL     OW 3764   0.265   0.993   3.055  0.0239 -0.2392 -0.2374
 1270SOL    HW1 3765   0.325   1.033   2.986 -1.4420 -0.5716 -1.7660
 1270SOL    HW2 3766   0.256   0.895   3.040 -1.2998 -0.1205 -0.3847
 1271SOL     OW 3767   2.632   1.919   3.607  0.5125 -0.0438  0.1843
 1271SOL    HW1 3768   2.659   1.822   3.600  1.5251  0.2186  0.2459
 1271SOL    HW2 3769   2.535   1.925   3.629  0.3804 -1.0462 -0.0695
 1272SOL     OW 3770   1.208   3.671   3.264 -0.0328 -0.7106  0.0567
 1272SOL    HW1 3771   1.255   3.711   3.343  1.1267  1.2501 -1.5150
 1272SOL    HW2 3772   1.115   3.645   3.290 -0.6996  2.5498  1.4294
 1273SOL     OW 3773   1.845   0.645   1.705 -0.3787 -0.3372  0.8017
 1273SOL    HW1 3774   1.911   0.570   1.703  0.8377  0.6986  0.6940
 1273SOL    HW2 3775   1.827   0.671   1.800 -0.2688 -0.3147  0.8164
 1274SOL     OW 3776   2.852   1.569   0.926 -0.4117 -0.2879 -0.0703
 1274SOL    HW1 3777   2.753   1.587   0.922 -0.2080  1.0622  0.5251
 1274SOL    HW2 3778   2.879   1.518   0.844 -1.8254 -1.9520  0.4186
 1275SOL     OW 3779   0.747   3.735   2.464  0.1510 -0.2263  0.1257
 1275SOL    HW1 3780   0.729   3.637   2.477 -0.7905 -0.1736 -0.6503
 1275SOL    HW2 3781   0.799   3.747   2.379 -0.7386  0.0131 -0.4050
 1276SOL     OW 3782   0.961   0.260   2.598 -0.1555 -0.5020 -0.5731
 1276SOL    HW1 3783   0.964   0.160   2.600  0.0778 -0.4926 -0.3990
 1276SOL    HW2 3784   1.013   0.294   2.519 -1.7092 -0.5712 -1.6704
 1277SOL     OW 3785   2.048   1.113   0.600  0.2493  0.1574 -0.0971
 1277SOL    HW1 3786   1.979   1.172   0.642 -1.7080 -2.4733  0.6134
 1277SOL    HW2 3787   2.003   1.039   0.549  2.4387 -2.2468  1.2082
 1278SOL     OW 3788   1.933   1.082   3.158 -0.4232  0.1881  0.3395
 1278SOL    HW1 3789   1.916   1.158   3.220  2.1289 -0.8349  2.4593
 1278SOL    HW2 3790   1.885   1.000   3.191  1.9449 -0.6864  1.8448
 1279SOL     OW 3791   3.197   0.460   1.563  0.0020  0.2544  0.9298
 1279SOL    HW1 3792   3.194   0.483   1.465  0.7209  1.1060  1.0951
 1279SOL    HW2 3793   3.106   0.430   1.593  0.1236 -1.5737 -0.3495
 1280SOL     OW 3794   3.098   3.413   0.997 -0.1534 -0.0632  0.0302
 1280SOL    HW1 3795   3.159   3.361   0.938  1.4137  0.7897  0.8366
 1280SOL    HW2 3796   3.152   3.461   1.067 -1.7659  0.6053  0.8695
 1281SOL     OW 3797   0.599   0.454   2.602  0.2227 -0.3559  0.4330
 1281SOL    HW1 3798   0.582   0.542   2.560  1.3107  1.2108  2.9910
 1281SOL    HW2 3799   0.513   0.412   2.631 -0.2059  0.8126  0.8852
 1282SOL     OW 3800   3.038   0.640   3.708 -0.2722 -0.0134  0.6718
 1282SOL    HW1 3801   3.057   0.719   3.650 -1.1040  1.5559  2.3935
 1282SOL    HW2 3802   2.946   0.606   3.689 -0.2972  0.0899  0.6082
 1283SOL     OW 3803   3.051   2.081   2.118 -0.7422 -0.2853 -0.3186
 1283SOL    HW1 3804   3.071   1.987   2.146 -1.3043  0.0007  1.0959
 1283SOL    HW2 3805   3.031   2.083   2.020 -4.2255 -2.2534  0.1926
 1284SOL     OW 3806   2.627   1.944   0.483  0.2204  0.3513  0.3241
 1284SOL    HW1 3807   2.721   1.948   0.448  0.6582  2.4593  1.5786
 1284SOL    HW2 3808   2.571   2.011   0.434  0.6279  2.6985  2.8343
 1285SOL     OW 3809   3.700   0.701   3.177  0.3914  0.1480  0.2445
 1285SOL    HW1 3810   3.703   0.675   3.273  2.4473 -0.8337 -0.0341
 1285SOL    HW2 3811   3.674   0.797   3.169 -2.6095 -0.4409  1.5755
 1286SOL     OW 3812   2.078   0.747   2.404 -0.7307 -0.1666  0.0897
 1286SOL    HW1 3813   2.127   0.660   2.409 -0.3487  0.0287 -0.1977
 1286SOL    HW2 3814   2.052   0.777   2.496 -3.4084 -2.0110  0.0524
 1287SOL     OW 3815   1.459   1.624   3.629  0.5967 -0.6344  0.2412
 1287SOL    HW1 3816   1.426   1.688   3.699  1.9420 -1.8564  2.0721
 1287SOL    HW2 3817   1.555   1.643   3.610  0.3397 -0.5409 -1.0830
 1288SOL     OW 3818   0.846   0.105   2.217  0.6687  0.3591 -0.2678
 1288SOL    HW1 3819   0.873   0.201   2.203  1.1508  0.2212 -0.3326
 1288SOL    HW2 3820   0.912   0.046   2.170  1.2514 -0.0584  1.0254
 1289SOL     OW 3821   3.420   1.742   2.964  0.2417 -0.3497 -0.4957
 1289SOL    HW1 3822   3.384   1.663   2.915 -0.7966 -0.5827  0.5689
 1289SOL    HW2 3823   3.500   1.778   2.917 -0.0677 -1.2142 -1.7293
 1290SOL     OW 3824   1.484   2.491   2.407 -0.3991  0.4018 -0.4511
 1290SOL    HW1 3825   1.574   2.518   2.441 -0.8265  1.4755 -0.1068
 1290SOL    HW2 3826   1.469   2.394   2.423 -0.4026  0.7551  2.0821
 1291SOL     OW 3827   2.102   0.078   2.930 -0.8272  0.2651  0.5609
 1291SOL    HW1 3828   2.086   0.134   3.011  0.1881 -1.0880  1.7421
 1291SOL    HW2 3829   2.113   0.137   2.850  1.8288  1.9070  2.0081
 1292SOL     OW 3830   3.039   2.137   1.243 -0.4629 -0.2199 -0.2556
 1292SOL    HW1 3831   3.105   2.152   1.316 -0.6959 -2.4806  0.4920
 1292SOL    HW2 3832   2.958   2.091   1.280 -0.1743 -2.3281 -2.0294
 1293SOL     OW 3833   2.306   2.551   0.232 -0.4107  0.2196  0.4289
 1293SOL    HW1 3834   2.399   2.531   0.203 -0.0562  0.1303  1.5666
 1293SOL    HW2 3835   2.291   2.650   0.231 -1.1075  0.1538 -2.0480
 1294SOL     OW 3836   2.476   0.067   2.354 -0.2855 -0.1935 -0.5107
 1294SOL    HW1 3837   2.448  -0.028   2.346 -1.0762 -0.0177  0.0538
 1294SOL    HW2 3838   2.403   0.126   2.320 -0.7362  0.2825  1.1736
 1295SOL     OW 3839   3.161   0.221   2.806 -0.1486 -0.1489  0.0311
 1295SOL    HW1 3840   3.234   0.283   2.837  0.1159 -0.6531  0.4400
 1295SOL    HW2 3841   3.167   0.209   2.707  0.6012 -0.5218  0.1138
 1296SOL     OW 3842   3.526   1.565   1.951 -0.9086  0.4521 -0.3331
 1296SOL    HW1 3843   3.476   1.535   2.032 -0.5417 -1.8336 -0.8691
 1296SOL    HW2 3844   3.624   1.551   1.965 -0.8417  0.0322 -1.1454
 1297SOL     OW 3845   1.881   1.256   0.743 -0.0571 -0.0802  0.5425
 1297SOL    HW1 3846   1.877   1.328   0.812  0.0199 -0.8831  1.4077
 1297SOL    HW2 3847   1.792   1.212   0.734 -0.5362  1.1092 -1.1117
 1298SOL     OW 3848   2.782   1.944   2.485 -0.1096 -0.0616 -0.2856
 1298SOL    HW1 3849   2.778   2.039   2.515 -1.1955 -0.3522  0.5735
 1298SOL    HW2 3850   2.691   1.916   2.453  0.1898 -0.8095 -0.4958
 1299SOL     OW 3851   2.538   1.023   0.933  0.5917  0.2761  0.6244
 1299SOL    HW1 3852   2.577   0.974   0.854  1.8964 -1.3793  2.2069
 1299SOL    HW2 3853   2.522   1.118   0.908  1.0994 -0.1497 -1.5874
 1300SOL     OW 3854   2.158   1.983   0.446 -0.0054  0.2258  0.3916
 1300SOL    HW1 3855   2.240   2.006   0.498  0.3689  1.0476 -0.5216
 1300SOL    HW2 3856   2.113   2.067   0.416 -1.3048 -0.2111  1.0413
 1301SOL     OW 3857   1.888   2.290   0.175  0.2339  0.3487 -0.3051
 1301SOL    HW1 3858   1.829   2.348   0.118  1.5651  2.2888  0.1976
 1301SOL    HW2 3859   1.982   2.298   0.144  0.5667 -0.9894  0.2825
 1302SOL     OW 3860   1.881   3.441   1.042 -0.0611  0.3748  0.0290
 1302SOL    HW1 3861   1.871   3.516   1.107  0.0767  0.4800 -0.0687
 1302SOL    HW2 3862   1.978   3.416   1.034  0.0960  1.2861 -1.1488
 1303SOL     OW 3863   2.621   3.352   0.329 -0.3162 -0.2515  0.3041
 1303SOL    HW1 3864   2.590   3.310   0.415  0.0031  0.8807  0.9948
 1303SOL    HW2 3865   2.701   3.410   0.348  0.2005 -0.5515 -0.8872
 1304SOL     OW 3866   3.141   2.197   0.176  0.6771  0.3713 -0.1627
 1304SOL    HW1 3867   3.239   2.198   0.154  0.8699  3.3908  0.3513
 1304SOL    HW2 3868   3.090   2.169   0.095  1.8794  1.0214 -1.1924
 1305SOL     OW 3869   2.171   3.438   0.431  0.3485 -0.1398  0.7396
 1305SOL    HW1 3870   2.177   3.377   0.352 -3.7811 -0.7327  0.6446
 1305SOL    HW2 3871   2.169   3.533   0.399  1.0593 -0.2402  0.3747
 1306SOL     OW 3872   2.542   3.253   0.553  0.0016  0.4117 -0.0501
 1306SOL    HW1 3873   2.616   3.206   0.601 -1.1530 -0.7613  0.6699
 1306SOL    HW2 3874   2.455   3.233   0.600 -0.9884  0.3597 -1.8327
 1307SOL     OW 3875   2.933   3.145   3.553  0.8352 -0.1439  0.4681
 1307SOL    HW1 3876   2.841   3.147   3.514  1.4642 -1.5573 -1.2497
 1307SOL    HW2 3877   2.940   3.072   3.620  0.4208  0.6882  1.4333
 1308SOL     OW 3878   2.276   3.159   0.297 -0.1473  0.0616  0.4295
 1308SOL    HW1 3879   2.362   3.108   0.298  0.0226  0.3444  0.3882
 1308SOL    HW2 3880   2.216   3.124   0.369 -0.2916 -0.6324 -0.0232
 1309SOL     OW 3881   2.385   2.563   1.879  0.0624 -0.6056  0.0007
 1309SOL    HW1 3882   2.314   2.540   1.812  1.6849  0.8593 -2.3184
 1309SOL    HW2 3883   2.358   2.645   1.929 -0.8091 -1.2868  0.7075
 1310SOL     OW 3884   1.836   0.353   0.981 -0.0977  0.5791  0.2563
 1310SOL    HW1 3885   1.798   0.445   0.991  2.0624  1.4300  1.4802
 1310SOL    HW2 3886   1.891   0.331   1.062  0.7054 -1.1569 -0.7111
 1311SOL     OW 3887   1.021   3.216   0.746  0.2440  0.5957 -0.3104
 1311SOL    HW1 3888   1.034   3.227   0.844  0.8188  0.1086 -0.3298
 1311SOL    HW2 3889   1.066   3.291   0.697 -0.0695  0.8552 -0.2040
 1312SOL     OW 3890   2.341   2.213   1.729  0.1273 -0.2016  0.1532
 1312SOL    HW1 3891   2.285   2.207   1.812  0.8673 -1.0409  0.6121
 1312SOL    HW2 3892   2.434   2.240   1.754  0.0276  0.8491 -0.5648
 1313SOL     OW 3893   2.487   2.966   0.307  0.0298  0.1393 -0.2364
 1313SOL    HW1 3894   2.542   2.971   0.224 -0.7970 -0.2095 -0.8179
 1313SOL    HW2 3895   2.546   2.945   0.385  0.4975 -1.9747 -1.1058
 1314SOL     OW 3896   2.503   0.439   3.141 -0.3821 -0.7111 -0.1162
 1314SOL    HW1 3897   2.561   0.386   3.079  1.8596  0.4766  0.8679
 1314SOL    HW2 3898   2.552   0.457   3.226 -1.9159  1.0104  0.4713
 1315SOL     OW 3899   2.583   2.760   3.121  0.1359 -0.3016  0.1212
 1315SOL    HW1 3900   2.613   2.738   3.213  0.0860 -1.1064 -0.0493
 1315SOL    HW2 3901   2.500   2.709   3.100  0.2816 -0.3084 -0.4529
 1316SOL     OW 3902   2.009   2.689   0.645  0.0935  0.1397  0.4800
 1316SOL    HW1 3903   1.925   2.738   0.621  1.2191  2.7015  1.4464
 1316SOL    HW2 3904   2.008   2.667   0.742  0.2610 -0.4275  0.3546
 1317SOL     OW 3905   2.361   3.209   0.758  0.2857 -0.9100 -0.0830
 1317SOL    HW1 3906   2.280   3.266   0.753 -0.0608 -1.5384 -2.3151
 1317SOL    HW2 3907   2.436   3.262   0.798  0.0663  1.2821 -2.3312
 1318SOL     OW 3908   2.802   0.073   0.956  0.3109 -0.0873  0.5845
 1318SOL    HW1 3909   2.712   0.080   0.999  0.4430  1.5898  0.6680
 1318SOL    HW2 3910   2.873   0.074   1.027  0.4198 -1.0757  0.5022
 1319SOL     OW 3911   2.877   1.960   0.366 -0.3140 -0.0234 -0.0396
 1319SOL    HW1 3912   2.855   1.962   0.268  0.1494 -1.9884 -0.2267
 1319SOL    HW2 3913   2.957   1.903   0.381 -0.1718  0.5283  1.4740
 1320SOL     OW 3914   0.952   2.867   2.741  0.1747 -0.0926 -0.3313
 1320SOL    HW1 3915   0.853   2.867   2.751  0.2511  0.9529  0.6440
 1320SOL    HW2 3916   0.994   2.841   2.828  0.7641 -0.7061 -0.7897
 1321SOL     OW 3917   2.063   1.197   0.283  0.2942  0.2044  0.4154
 1321SOL    HW1 3918   2.047   1.116   0.227  1.9572 -0.3485  0.6735
 1321SOL    HW2 3919   2.016   1.187   0.371 -2.2434  1.0332 -0.7780
 1322SOL     OW 3920   2.832   0.112   3.122 -0.0829 -0.5550  0.5794
 1322SOL    HW1 3921   2.919   0.098   3.076 -0.1134 -1.2550  0.7202
 1322SOL    HW2 3922   2.811   0.031   3.178 -0.4170 -0.0430  1.2015
 1323SOL     OW 3923   1.824   0.491   3.352  0.8617 -0.1008 -0.2259
 1323SOL    HW1 3924   1.767   0.412   3.374  1.4112 -0.6581 -0.7604
 1323SOL    HW2 3925   1.907   0.488   3.407  1.2863 -0.3773 -0.8701
 1324SOL     OW 3926   0.553   3.096   0.503  0.1362 -0.1619  0.0699
 1324SOL    HW1 3927   0.481   3.137   0.448  0.8220 -1.2808 -1.7538
 1324SOL    HW2 3928   0.635   3.152   0.498  1.1114 -1.6505 -2.5209
 1325SOL     OW 3929   3.104   3.123   3.108  0.0139 -0.1065  0.2818
 1325SOL    HW1 3930   3.171   3.195   3.126  0.9197 -0.6256 -0.9512
 1325SOL    HW2 3931   3.023   3.163   3.065  0.0059  0.3350  0.6938
 1326SOL     OW 3932   0.818   2.801   0.718  0.7716 -0.3780  0.8211
 1326SOL    HW1 3933   0.851   2.753   0.800  0.0080 -1.2346  0.6387
 1326SOL    HW2 3934   0.834   2.744   0.638  0.5479  0.0045  0.5054
 1327SOL     OW 3935   3.039   1.830   0.674 -0.3301  0.1555 -0.3121
 1327SOL    HW1 3936   3.114   1.802   0.733 -0.2461  1.9266  0.4915
 1327SOL    HW2 3937   2.968   1.874   0.729 -0.6449  1.0801 -1.4131
 1328SOL     OW 3938   3.340   3.019   0.490  0.4621 -0.3340  0.3208
 1328SOL    HW1 3939   3.326   2.991   0.585  1.0093 -3.7803 -0.4797
 1328SOL    HW2 3940   3.435   3.047   0.476 -0.3423  3.6460  1.3878
 1329SOL     OW 3941   3.254   2.299   3.173  0.5880 -0.4417 -0.0228
 1329SOL    HW1 3942   3.192   2.230   3.134  0.4567  1.6418 -4.0682
 1329SOL    HW2 3943   3.345   2.260   3.184  0.2546 -1.6122 -1.1205
 1330SOL     OW 3944   0.779   0.382   1.738  0.3026 -0.0693  0.7975
 1330SOL    HW1 3945   0.856   0.402   1.677  0.0113 -0.2054  0.3796
 1330SOL    HW2 3946   0.724   0.465   1.750 -0.4370 -0.3788 -0.2712
 1331SOL     OW 3947   0.523   3.180   0.122 -0.3149 -0.0935 -0.1434
 1331SOL    HW1 3948   0.536   3.255   0.187 -0.1816 -0.0224 -0.2510
 1331SOL    HW2 3949   0.427   3.153   0.121 -0.4737  0.4667 -0.5360
 1332SOL     OW 3950   2.956   2.508   0.911 -0.1959  0.3656  0.2172
 1332SOL    HW1 3951   2.946   2.605   0.934  1.2034  0.6231 -0.1730
 1332SOL    HW2 3952   2.912   2.489   0.823  1.2209  1.1067 -0.6890
 1333SOL     OW 3953   1.734   2.948   1.519 -0.3281  0.4083 -0.0657
 1333SOL    HW1 3954   1.820   2.933   1.567 -0.1007  1.0985 -0.2474
 1333SOL    HW2 3955   1.695   2.860   1.492  0.3825  0.0969 -0.1021
 1334SOL     OW 3956   2.034   2.831   1.147 -0.5090  0.2142 -0.2303
 1334SOL    HW1 3957   2.083   2.852   1.231  0.9735 -1.5851 -0.5576
 1334SOL    HW2 3958   2.008   2.734   1.147 -1.3035  0.3975 -1.4599
 1335SOL     OW 3959   0.459   0.404   0.577  0.2263 -0.0426  0.5538
 1335SOL    HW1 3960   0.527   0.455   0.524 -1.2944  1.6967  0.1554
 1335SOL    HW2 3961   0.432   0.459   0.657  0.5257 -1.4691  1.6736
 1336SOL     OW 3962   2.393   2.615   2.979  0.4777  0.6559  0.8630
 1336SOL    HW1 3963   2.328   2.568   3.039 -0.9468 -0.1763 -1.1994
 1336SOL    HW2 3964   2.379   2.584   2.885  2.1553  2.3995 -0.0203
 1337SOL     OW 3965   3.459   2.928   3.710 -0.0952  0.5517 -0.1264
 1337SOL    HW1 3966   3.377   2.896   3.661 -0.4815  2.5697 -0.8829
 1337SOL    HW2 3967   3.538   2.922   3.650 -0.2843  1.5630 -0.4904
 1338SOL     OW 3968   3.688   2.915   3.541 -0.1951 -0.6083  0.5586
 1338SOL    HW1 3969   3.652   2.924   3.448 -0.1561 -0.2083  0.5794
 1338SOL    HW2 3970   3.726   2.824   3.554 -1.0515 -0.9846  0.4810
 1339SOL     OW 3971   2.276   1.217   0.700 -0.1514 -0.2240  0.1734
 1339SOL    HW1 3972   2.350   1.161   0.663 -0.7072 -0.4295 -0.6628
 1339SOL    HW2 3973   2.188   1.185   0.663 -0.7736 -0.5848  1.8545
 1340SOL     OW 3974   0.352   2.288   2.267  0.0716  0.0365  0.1803
 1340SOL    HW1 3975   0.408   2.306   2.348  0.3070 -1.6766  0.4256
 1340SOL    HW2 3976   0.391   2.212   2.215 -0.5354  0.5758 -1.1245
 1341SOL     OW 3977   2.510   3.161   1.767  0.0422 -0.2861 -0.4422
 1341SOL    HW1 3978   2.482   3.120   1.854  0.2933 -0.5869 -0.4978
 1341SOL    HW2 3979   2.433   3.209   1.726 -0.1272 -0.2958 -0.1389
 1342SOL     OW 3980   1.948   2.613   0.928 -0.1194 -0.3994  0.3964
 1342SOL    HW1 3981   1.876   2.682   0.936  0.7496  0.3710  2.4329
 1342SOL    HW2 3982   1.988   2.597   1.019  0.9914 -2.2035 -0.3635
 1343SOL     OW 3983   2.025   2.213   0.388  0.1790  0.7993  0.0779
 1343SOL    HW1 3984   1.980   2.236   0.302  2.4958  1.1555 -1.1284
 1343SOL    HW2 3985   2.037   2.297   0.442 -1.8845  0.4786  1.1362
 1344SOL     OW 3986   2.674   2.312   0.298  0.3939  0.3310 -0.5590
 1344SOL    HW1 3987   2.774   2.303   0.303  0.5736  0.6216 -2.6392
 1344SOL    HW2 3988   2.638   2.332   0.389  2.3183  1.0103  0.1094
 1345SOL     OW 3989   1.821   0.413   1.360 -0.3179 -1.1392  0.2961
 1345SOL    HW1 3990   1.841   0.498   1.311 -0.1324 -1.2150  0.2397
 1345SOL    HW2 3991   1.736   0.424   1.412 -0.6121 -1.1193 -0.1843
 1346SOL     OW 3992   2.394   1.610   2.515  0.4084  0.2619  0.2637
 1346SOL    HW1 3993   2.307   1.570   2.486 -0.3408  1.4009  0.8722
 1346SOL    HW2 3994   2.388   1.636   2.612  1.7324 -0.4391  0.5621
 1347SOL     OW 3995   3.292   3.386   2.225 -0.1871  0.1264 -0.2703
 1347SOL    HW1 3996   3.300   3.431   2.314 -0.3210  0.7181 -0.5512
 1347SOL    HW2 3997   3.197   3.386   2.195 -0.6256 -2.5825  0.8473
 1348SOL     OW 3998   3.704   2.177   0.855 -0.2299 -0.3112 -0.0732
 1348SOL    HW1 3999   3.607   2.155   0.864 -0.5262  1.5719  2.3280
 1348SOL    HW2 4000   3.725   2.195   0.759 -2.2502 -0.7439 -0.6446
 1349SOL     OW 4001   2.790   2.144   1.524 -0.0078  0.1504 -0.2918
 1349SOL    HW1 4002   2.804   2.086   1.444 -3.4412  0.7332 -1.4893
 1349SOL    HW2 4003   2.786   2.087   1.606 -3.5879 -1.5988 -1.4633
 1350SOL     OW 4004   0.660   3.304   3.040 -0.0219 -0.4466 -0.1556
 1350SOL    HW1 4005   0.613   3.220   3.068  0.1961 -0.1254  1.2789
 1350SOL    HW2 4006   0.593   3.373   3.014 -0.4552  0.0939  2.1221
 1351SOL     OW 4007   1.811   0.563   2.641 -0.7483 -0.2520 -0.7002
 1351SOL    HW1 4008   1.771   0.571   2.732 -2.0435 -0.7889 -1.2008
 1351SOL    HW2 4009   1.828   0.467   2.621 -0.1778 -0.1099 -0.9122
 1352SOL     OW 4010   3.244   3.362   3.263  0.2010  0.5121  0.8242
 1352SOL    HW1 4011   3.252   3.441   3.202  0.1992 -1.2155 -1.5389
 1352SOL    HW2 4012   3.163   3.373   3.321 -0.8698  1.4198 -0.7727
 1353SOL     OW 4013   2.891   2.227   2.546  0.0253  0.5531  0.1485
 1353SOL    HW1 4014   2.888   2.224   2.646 -0.5945  0.5425  0.1363
 1353SOL    HW2 4015   2.803   2.261   2.512 -0.4024 -1.1051 -0.4561
 1354SOL     OW 4016   1.548   2.493   0.338 -0.2540 -0.1851 -0.1543
 1354SOL    HW1 4017   1.636   2.531   0.368 -0.2709  0.5892 -1.0229
 1354SOL    HW2 4018   1.489   2.479   0.417  0.3447  0.0963  0.3523
 1355SOL     OW 4019   2.156   3.363   0.684 -0.3945  0.7206 -0.0418
 1355SOL    HW1 4020   2.159   3.397   0.590  0.5152 -1.4974 -0.8888
 1355SOL    HW2 4021   2.079   3.299   0.694  1.8596 -2.2982 -0.5891
 1356SOL     OW 4022   0.912   1.743   2.296 -0.5017 -0.4274 -0.1292
 1356SOL    HW1 4023   0.993   1.731   2.352 -0.0489 -0.0228 -0.6816
 1356SOL    HW2 4024   0.935   1.796   2.214 -0.8217 -2.1950 -1.4199
 1357SOL     OW 4025   3.362   3.227   0.908  1.3855 -0.1306 -0.2379
 1357SOL    HW1 4026   3.333   3.142   0.866  1.1092  0.2991 -0.9355
 1357SOL    HW2 4027   3.406   3.285   0.839  1.5102  0.3180  0.2106
 1358SOL     OW 4028   2.426   2.503   1.441  0.4116  0.4017 -0.1856
 1358SOL    HW1 4029   2.526   2.513   1.446  0.3071  0.9517  1.4120
 1358SOL    HW2 4030   2.404   2.409   1.415  1.3529  0.1010  0.0421
 1359SOL     OW 4031   3.248   2.545   0.195  0.6800  0.3073 -0.0928
 1359SOL    HW1 4032   3.307   2.625   0.203  0.2537  0.5357  1.0226
 1359SOL    HW2 4033   3.154   2.571   0.219  0.2608 -0.2205 -1.0883
 1360SOL     OW 4034   3.040   3.655   0.217 -0.1073 -0.1137 -0.0300
 1360SOL    HW1 4035   3.039   3.559   0.245 -2.2287 -0.5700 -1.3839
 1360SOL    HW2 4036   3.128   3.696   0.241  0.9527 -2.4478  0.3877
 1361SOL     OW 4037   2.569   2.473   0.538  0.6184 -0.2294 -0.5950
 1361SOL    HW1 4038   2.553   2.572   0.540 -0.3808 -0.3830  0.3374
 1361SOL    HW2 4039   2.481   2.426   0.530  1.0940 -1.0410 -1.0890
 1362SOL     OW 4040   2.208   3.028   1.660  0.3828  0.7824 -0.1297
 1362SOL    HW1 4041   2.236   3.123   1.670  0.6705  0.8317 -1.2589
 1362SOL    HW2 4042   2.214   2.982   1.748 -1.6493  2.3013  0.8890
 1363SOL     OW 4043   2.354   3.303   1.140  0.4776  0.4610 -0.0491
 1363SOL    HW1 4044   2.263   3.278   1.108 -0.1362  1.0970  1.1590
 1363SOL    HW2 4045   2.413   3.222   1.140 -0.9216 -0.6253  1.9475
 1364SOL     OW 4046   2.234   2.396   1.175  0.1628 -0.3611 -0.3356
 1364SOL    HW1 4047   2.312   2.458   1.172 -0.0858 -0.0549 -0.4743
 1364SOL    HW2 4048   2.261   2.311   1.220  0.4072 -0.0154  0.1783
 1365SOL     OW 4049   1.602   1.294   2.067 -0.0934 -0.5277 -0.7438
 1365SOL    HW1 4050   1.548   1.250   2.140 -2.0753 -2.4122 -3.1526
 1365SOL    HW2 4051   1.698   1.272   2.079 -0.1624  0.2261  1.9074
 1366SOL     OW 4052   1.949   3.522   3.411 -0.1030 -0.1566  0.4953
 1366SOL    HW1 4053   1.938   3.477   3.499  1.0924 -0.2081  0.6449
 1366SOL    HW2 4054   2.018   3.473   3.357 -0.4240  0.1931 -0.2443
 1367SOL     OW 4055   2.220   2.542   1.675  0.3361 -0.0632 -0.4747
 1367SOL    HW1 4056   2.290   2.510   1.611  1.0664  1.3154 -0.4056
 1367SOL    HW2 4057   2.148   2.589   1.625  0.3915  0.1234 -0.3805
 1368SOL     OW 4058   2.811   3.677   1.517  0.5083 -0.0064 -0.5098
 1368SOL    HW1 4059   2.747   3.650   1.589  0.7370 -0.2828 -0.4092
 1368SOL    HW2 4060   2.905   3.671   1.552  0.5758  0.7026 -0.5577
 1369SOL     OW 4061   0.449   2.357   0.142 -0.3185  0.0157  0.2032
 1369SOL    HW1 4062   0.530   2.316   0.185 -0.7521 -0.6860  0.3783
 1369SOL    HW2 4063   0.411   2.292   0.076 -2.3612 -0.8746  2.1219
 1370SOL     OW 4064   3.126   2.360   0.616 -0.0481 -0.3657 -0.9605
 1370SOL    HW1 4065   3.111   2.458   0.631  1.5377  0.1351 -2.4237
 1370SOL    HW2 4066   3.045   2.320   0.572  0.3812  0.9540 -3.0934
 1371SOL     OW 4067   2.012   2.208   1.591 -0.1493 -0.0464 -0.0259
 1371SOL    HW1 4068   2.049   2.122   1.557 -1.4632 -0.9057  0.6305
 1371SOL    HW2 4069   2.069   2.242   1.665  0.6911 -0.0456 -0.6565
 1372SOL     OW 4070   0.915   1.435   1.111  0.0654 -0.6653  0.1527
 1372SOL    HW1 4071   0.973   1.510   1.142  0.6593 -0.6481 -0.9516
 1372SOL    HW2 4072   0.965   1.348   1.120 -0.5475 -0.9212  1.2426
 1373SOL     OW 4073   0.308   3.199   3.311 -0.5447  0.1646  0.4387
 1373SOL    HW1 4074   0.248   3.171   3.386 -0.2869 -1.2605  0.1522
 1373SOL    HW2 4075   0.288   3.144   3.230  0.3893  0.4350  0.0115
 1374SOL     OW 4076   1.405   0.661   1.737  0.0768 -0.3506 -0.4030
 1374SOL    HW1 4077   1.481   0.667   1.672  0.6645 -2.1837  0.0511
 1374SOL    HW2 4078   1.413   0.576   1.790 -1.8530 -0.1898  0.2250
 1375SOL     OW 4079   0.866   2.620   0.514  1.0617  0.1102 -0.0567
 1375SOL    HW1 4080   0.913   2.577   0.437 -0.8701 -2.3599  0.0079
 1375SOL    HW2 4081   0.767   2.614   0.501  0.6886  1.6337  1.6000
 1376SOL     OW 4082   0.690   2.267   0.223  0.2923 -0.0002  0.0293
 1376SOL    HW1 4083   0.734   2.186   0.186 -0.1493 -0.8828  1.3841
 1376SOL    HW2 4084   0.749   2.347   0.209  1.1752 -0.7249 -0.4177
 1377SOL     OW 4085   2.154   0.029   0.285  0.6897 -0.1631  0.6602
 1377SOL    HW1 4086   2.073   0.039   0.227  2.0654  2.7268 -0.9688
 1377SOL    HW2 4087   2.144   0.084   0.367  2.2263  3.1772 -1.1926
 1378SOL     OW 4088   1.607   2.432   1.532  0.0118  0.1053  0.5600
 1378SOL    HW1 4089   1.508   2.422   1.531  0.0280 -0.2659  1.5256
 1378SOL    HW2 4090   1.650   2.345   1.557  0.7262 -0.4485 -2.2540
 1379SOL     OW 4091   3.604   3.273   1.946 -0.6158 -0.0559  0.0712
 1379SOL    HW1 4092   3.593   3.177   1.921  2.1296 -0.3012 -0.4769
 1379SOL    HW2 4093   3.521   3.323   1.922 -1.5219 -1.9918 -1.0673
 1380SOL     OW 4094   0.068   3.525   3.636  0.1073 -0.8410  0.0922
 1380SOL    HW1 4095   0.069   3.483   3.546  1.3291 -1.6654  0.4709
 1380SOL    HW2 4096   0.081   3.455   3.706  2.0553  0.1043  0.7419
 1381SOL     OW 4097   2.585   2.879   1.989  0.3383 -0.8016  0.0741
 1381SOL    HW1 4098   2.673   2.831   1.996  0.2652 -0.8080  1.0793
 1381SOL    HW2 4099   2.512   2.820   2.021  0.3234  0.1438  1.9200
 1382SOL     OW 4100   3.627   2.575   0.366 -0.0670 -0.2562 -0.2446
 1382SOL    HW1 4101   3.579   2.648   0.416  0.5269  1.4859 -2.1001
 1382SOL    HW2 4102   3.725   2.581   0.386 -0.0316 -0.6363 -0.3079
 1383SOL     OW 4103   0.570   0.639   1.164  0.0667  0.5689  0.0214
 1383SOL    HW1 4104   0.585   0.654   1.261  1.1500  0.4050 -0.1127
 1383SOL    HW2 4105   0.533   0.722   1.122 -0.7926  0.5095  0.6385
 1384SOL     OW 4106   2.801   0.917   1.066 -0.2655  0.0490 -0.0610
 1384SOL    HW1 4107   2.821   0.857   0.988 -2.3275 -0.2448 -0.4170
 1384SOL    HW2 4108   2.725   0.977   1.043 -0.9596 -0.0885  1.7365
 1385SOL     OW 4109   0.367   0.931   1.352 -0.3690 -0.3453  0.0195
 1385SOL    HW1 4110   0.392   0.865   1.423 -1.7061 -1.3145 -0.3672
 1385SOL    HW2 4111   0.399   0.899   1.263  0.8908  0.6355  0.0914
 1386SOL     OW 4112   2.714   2.960   0.103 -0.0206  0.7330  0.1812
 1386SOL    HW1 4113   2.813   2.953   0.088 -0.2673 -0.3126 -1.2027
 1386SOL    HW2 4114   2.667   2.966   0.015 -1.3098 -0.9800  0.6851
 1387SOL     OW 4115   0.670   1.444   1.035 -0.7394  0.1469  0.1793
 1387SOL    HW1 4116   0.767   1.462   1.048 -0.8453  0.1043  1.1015
 1387SOL    HW2 4117   0.656   1.396   0.949  0.4689 -3.0963  1.6161
 1388SOL     OW 4118   2.510   3.523   1.147 -0.3870  0.5068  0.3061
 1388SOL    HW1 4119   2.506   3.576   1.063 -2.2284 -0.3048 -0.1844
 1388SOL    HW2 4120   2.459   3.437   1.135  1.2634 -0.7053  1.5259
 1389SOL     OW 4121   2.117   1.811   0.230 -0.0847 -0.2239 -0.4781
 1389SOL    HW1 4122   2.096   1.882   0.162 -0.6653 -1.3566 -1.5182
 1389SOL    HW2 4123   2.130   1.854   0.319 -0.5170  1.1772 -1.0514
 1390SOL     OW 4124   0.930   1.950   3.006 -0.3538  0.1830 -0.0354
 1390SOL    HW1 4125   0.924   1.996   2.917  0.0351 -1.3489 -0.8813
 1390SOL    HW2 4126   0.903   1.854   2.996 -2.9227  0.5846  2.0322
 1391SOL     OW 4127   1.543   0.862   0.568  0.2424  0.4616 -0.6809
 1391SOL    HW1 4128   1.578   0.897   0.482  0.9473 -0.3300 -0.7210
 1391SOL    HW2 4129   1.445   0.882   0.575  0.4945  1.8765 -0.9710
 1392SOL     OW 4130   3.599   2.974   1.347  0.1678 -0.2577  0.3161
 1392SOL    HW1 4131   3.631   2.884   1.320 -0.6905 -0.8151  1.0653
 1392SOL    HW2 4132   3.506   2.966   1.384  0.4836  0.7534  1.4079
 1393SOL     OW 4133   2.933   1.525   0.639 -0.2556  0.0213 -0.0264
 1393SOL    HW1 4134   3.028   1.497   0.651  0.2242  0.8236 -1.6639
 1393SOL    HW2 4135   2.929   1.625   0.628 -1.3108  0.0146  0.2114
 1394SOL     OW 4136   2.638   2.566   1.821  0.0347 -0.4054  0.3957
 1394SOL    HW1 4137   2.673   2.598   1.908  0.7390 -0.0295 -0.0248
 1394SOL    HW2 4138   2.538   2.561   1.825  0.0525 -0.1760  1.1443
 1395SOL     OW 4139   1.947   0.796   2.138  0.2270  0.5363  0.7630
 1395SOL    HW1 4140   1.951   0.895   2.130 -1.9236  0.5835 -0.4334
 1395SOL    HW2 4141   1.987   0.768   2.226  1.1331  2.3988  0.9913
 1396SOL     OW 4142   3.338   2.681   1.977 -0.2794  0.2063  0.0364
 1396SOL    HW1 4143   3.309   2.764   2.025  0.0854 -0.7977  2.1373
 1396SOL    HW2 4144   3.262   2.645   1.923 -1.6355 -0.0156  1.9941
 1397SOL     OW 4145   3.080   1.835   1.854  0.3272 -0.0477 -0.0209
 1397SOL    HW1 4146   3.086   1.800   1.948  0.5300  2.3741  0.9462
 1397SOL    HW2 4147   3.167   1.818   1.807  0.3762 -0.9094  0.3637
 1398SOL     OW 4148   2.822   1.983   1.300  0.5420  0.5109  0.0372
 1398SOL    HW1 4149   2.740   1.941   1.340 -0.4767  1.6740 -0.7332
 1398SOL    HW2 4150   2.850   1.931   1.219  0.7361 -0.0455  0.4572
 1399SOL     OW 4151   2.225   2.477   3.134  0.0447  0.6952 -0.3675
 1399SOL    HW1 4152   2.132   2.461   3.102  0.0383 -1.7522  0.6482
 1399SOL    HW2 4153   2.222   2.528   3.221 -0.4259 -0.2524  0.1846
 1400SOL     OW 4154   1.857   1.468   0.917  0.2484 -0.2591 -0.1483
 1400SOL    HW1 4155   1.883   1.554   0.873 -1.1682  0.2809  0.0069
 1400SOL    HW2 4156   1.795   1.488   0.993  1.2563 -1.3053  0.9727
 1401SOL     OW 4157   2.391   2.565   0.780 -0.0662 -0.0181  0.3635
 1401SOL    HW1 4158   2.388   2.657   0.741  0.8208  0.5676  1.5813
 1401SOL    HW2 4159   2.313   2.512   0.748 -0.8441  1.3135 -0.0170
 1402SOL     OW 4160   0.693   2.620   2.292 -0.1817  0.4207  0.5834
 1402SOL    HW1 4161   0.777   2.653   2.250 -0.8010  0.9684 -0.2590
 1402SOL    HW2 4162   0.684   2.659   2.384  1.9789 -2.0301  1.9788
 1403SOL     OW 4163   3.436   1.889   0.711 -0.1630  0.4968  0.0035
 1403SOL    HW1 4164   3.524   1.858   0.746 -0.0257 -0.0732 -0.7969
 1403SOL    HW2 4165   3.435   1.879   0.611 -1.1682  0.3978  0.0140
 1404SOL     OW 4166   2.001   2.530   1.199 -0.1747 -0.4792  0.3879
 1404SOL    HW1 4167   1.958   2.487   1.279  0.1725  0.3310  1.0303
 1404SOL    HW2 4168   2.081   2.477   1.172 -0.8005 -1.2655 -0.0068
 1405SOL     OW 4169   2.459   3.107   3.018  0.7514 -0.2790 -0.9639
 1405SOL    HW1 4170   2.429   3.016   3.046 -0.3934  0.5245  0.6622
 1405SOL    HW2 4171   2.380   3.169   3.021  1.4711  0.7405 -2.2118
 1406SOL     OW 4172   1.898   0.871   1.573  0.4604 -0.0436  0.0213
 1406SOL    HW1 4173   1.991   0.843   1.551  0.0158 -0.9497 -0.7743
 1406SOL    HW2 4174   1.857   0.805   1.635  0.6943  0.9361  1.2659
 1407SOL     OW 4175   2.927   1.061   0.656 -0.0563 -0.5082  0.3861
 1407SOL    HW1 4176   3.008   1.029   0.704  1.6174  1.5273 -0.9350
 1407SOL    HW2 4177   2.895   1.147   0.696 -1.5249 -1.2136  0.8053
 1408SOL     OW 4178   2.686   3.005   1.409  0.7410 -0.0031 -0.3149
 1408SOL    HW1 4179   2.635   2.921   1.393 -0.0425  0.3312  0.3634
 1408SOL    HW2 4180   2.727   3.003   1.500  1.7079 -0.1446 -0.7453
 1409SOL     OW 4181   1.784   1.025   1.389 -0.4043 -0.1082 -0.0816
 1409SOL    HW1 4182   1.832   0.961   1.448  0.7880  0.1715 -0.7211
 1409SOL    HW2 4183   1.696   1.049   1.431 -0.3022 -1.1608  0.7735
 1410SOL     OW 4184   3.631   2.944   0.780 -0.1200 -0.1874 -0.5338
 1410SOL    HW1 4185   3.668   2.851   0.775  0.4467  0.0726 -1.3152
 1410SOL    HW2 4186   3.645   2.981   0.871 -1.1245 -1.1750  0.0589
 1411SOL     OW 4187   2.536   3.278   2.436 -0.1305  0.2667  0.6724
 1411SOL    HW1 4188   2.542   3.300   2.338  2.4956  0.6592  0.8490
 1411SOL    HW2 4189   2.581   3.350   2.489  0.5304 -1.0588  1.9832
 1412SOL     OW 4190   2.917   1.539   3.610 -0.3990 -0.1861 -0.0219
 1412SOL    HW1 4191   2.841   1.603   3.618 -0.6116 -0.5024  0.5309
 1412SOL    HW2 4192   2.907   1.487   3.524 -1.1004 -0.5893  0.2865
 1413SOL     OW 4193   1.657   3.128   1.305  0.4318  0.2253 -0.0123
 1413SOL    HW1 4194   1.684   3.066   1.378  0.8955 -0.4211 -0.7235
 1413SOL    HW2 4195   1.726   3.127   1.233 -0.6717 -0.2046 -1.0989
 1414SOL     OW 4196   3.668   2.203   0.586 -0.2558  0.2838  0.4077
 1414SOL    HW1 4197   3.750   2.175   0.536  1.3787  2.2370  1.8397
 1414SOL    HW2 4198   3.590   2.148   0.555  1.7292 -2.3307 -0.3526
 1415SOL     OW 4199   2.421   2.622   1.054  0.3805 -0.3082 -0.0819
 1415SOL    HW1 4200   2.404   2.595   0.960  0.8960  2.8939 -1.2313
 1415SOL    HW2 4201   2.519   2.615   1.074  0.7459  1.8662 -0.8823
 1416SOL     OW 4202   1.988   1.207   1.329 -0.2559  0.1191 -0.2080
 1416SOL    HW1 4203   2.072   1.159   1.356 -0.9333 -2.4737 -2.3562
 1416SOL    HW2 4204   1.909   1.153   1.356 -1.1704  1.2280 -0.6134
 1417SOL     OW 4205   1.263   3.069   2.036 -0.1457  0.3003 -0.6977
 1417SOL    HW1 4206   1.243   3.157   1.994 -0.0158  0.7699  0.2027
 1417SOL    HW2 4207   1.259   3.078   2.136  2.4062 -0.0515 -0.4813
 1418SOL     OW 4208   2.661   2.231   0.899  0.3181 -0.0702  0.2934
 1418SOL    HW1 4209   2.615   2.144   0.921  0.5933 -0.5519 -0.9542
 1418SOL    HW2 4210   2.722   2.256   0.974  1.5701 -1.8822 -0.0640
 1419SOL     OW 4211   1.133   3.072   2.632  0.3213  0.3724  0.5241
 1419SOL    HW1 4212   1.232   3.065   2.641  0.2839  0.7618  1.2990
 1419SOL    HW2 4213   1.091   2.983   2.650  0.5235  0.2296  0.2872
 1420SOL     OW 4214   1.715   0.688   1.942 -0.1296 -0.2970 -0.2775
 1420SOL    HW1 4215   1.778   0.734   2.004  0.6392 -0.8966 -0.6023
 1420SOL    HW2 4216   1.625   0.730   1.949 -0.2987 -0.9119  1.8978
 1421SOL     OW 4217   0.743   1.574   1.312  0.2068  0.2683 -0.1726
 1421SOL    HW1 4218   0.670   1.589   1.246  0.8606  0.4019 -0.8812
 1421SOL    HW2 4219   0.814   1.517   1.271  0.3514 -0.1356  0.6171
 1422SOL     OW 4220   3.456   0.621   1.118  0.1063  0.6734 -0.2527
 1422SOL    HW1 4221   3.478   0.718   1.124  2.7019  0.1620 -0.3598
 1422SOL    HW2 4222   3.528   0.568   1.164 -1.5447 -1.1921  0.3145
 1423SOL     OW 4223   0.060   3.456   1.818 -0.2949 -0.8133  0.2467
 1423SOL    HW1 4224   0.026   3.544   1.850  0.3165 -0.2616 -0.5741
 1423SOL    HW2 4225   0.030   3.384   1.880  1.4392  0.2858  2.4957
 1424SOL     OW 4226   1.472   0.253   1.351  0.2595  0.6271  0.0687
 1424SOL    HW1 4227   1.540   0.187   1.321 -0.6149 -0.5507  0.6073
 1424SOL    HW2 4228   1.514   0.316   1.417  0.7794 -0.1913  0.5336
 1425SOL     OW 4229   2.000   1.497   1.358  0.6054 -0.0100  0.3905
 1425SOL    HW1 4230   2.001   1.399   1.338  2.2044 -0.0202  0.3659
 1425SOL    HW2 4231   2.081   1.539   1.318  0.6751  1.0795  1.6209
 1426SOL     OW 4232   3.212   2.140   0.747  0.7659  0.4401 -0.0784
 1426SOL    HW1 4233   3.174   2.051   0.721 -0.6078  0.8061  0.5667
 1426SOL    HW2 4234   3.159   2.213   0.704  3.0484  0.9756 -2.1518
 1427SOL     OW 4235   3.377   1.861   0.436  0.7145  0.4062  0.3924
 1427SOL    HW1 4236   3.278   1.849   0.433  0.6961  0.6300  0.0281
 1427SOL    HW2 4237   3.399   1.959   0.443  0.9120  0.3745  0.2312
 1428SOL     OW 4238   2.325   2.866   1.089 -0.4305  0.3950 -0.6703
 1428SOL    HW1 4239   2.359   2.772   1.084 -0.2553  0.4679 -0.8247
 1428SOL    HW2 4240   2.246   2.869   1.152  0.3091  0.3644  0.2840
 1429SOL     OW 4241   1.037   3.260   1.024 -0.3747 -0.6362 -0.5728
 1429SOL    HW1 4242   1.117   3.242   1.080 -1.1982  2.3922  1.8607
 1429SOL    HW2 4243   0.956   3.221   1.067 -0.7533 -0.0089 -0.6944
 1430SOL     OW 4244   3.048   1.662   2.973  0.3020  0.3229  0.0047
 1430SOL    HW1 4245   2.988   1.721   3.027 -1.1892 -1.2980  0.2080
 1430SOL    HW2 4246   3.100   1.718   2.908 -0.1863  1.9558  0.9544
 1431SOL     OW 4247   3.406   2.342   2.224  0.5295 -0.0283 -0.1387
 1431SOL    HW1 4248   3.397   2.287   2.140  1.1358  1.1849 -1.0342
 1431SOL    HW2 4249   3.461   2.292   2.291  1.8075 -0.1764 -1.2564
 1432SOL     OW 4250   0.829   1.993   1.922 -0.4433  0.0513  0.6203
 1432SOL    HW1 4251   0.773   1.994   1.839 -0.1584 -1.0635  0.3996
 1432SOL    HW2 4252   0.846   2.086   1.952 -0.7961  0.4597 -0.4125
 1433SOL     OW 4253   2.962   1.816   3.366 -0.0726 -0.0390 -0.3009
 1433SOL    HW1 4254   2.950   1.912   3.393  2.5986  0.4086 -0.3644
 1433SOL    HW2 4255   2.951   1.808   3.267 -2.4637 -0.2716 -0.0713
 1434SOL     OW 4256   0.100   0.171   1.194 -0.5240 -0.2036  0.0950
 1434SOL    HW1 4257   0.194   0.137   1.187 -0.5650 -0.1201 -0.9846
 1434SOL    HW2 4258   0.052   0.121   1.267  0.4092 -0.0922  0.8059
 1435SOL     OW 4259   3.649   2.552   0.109 -0.2131  0.0130  0.0794
 1435SOL    HW1 4260   3.635   2.584   0.203 -1.3723  1.0476 -0.4182
 1435SOL    HW2 4261   3.633   2.453   0.105 -0.7964  0.0673  0.8536
 1436SOL     OW 4262   3.117   1.951   1.089  0.3903  0.1437  0.3246
 1436SOL    HW1 4263   3.084   2.033   1.136 -0.5507 -0.6134  1.0216
 1436SOL    HW2 4264   3.039   1.895   1.061  0.9996 -0.1850 -0.7677
 1437SOL     OW 4265   1.544   3.107   0.457 -0.0036 -0.0683 -0.6199
 1437SOL    HW1 4266   1.445   3.110   0.450 -0.3224 -1.2233  2.0879
 1437SOL    HW2 4267   1.576   3.014   0.440  0.4281 -0.0448  0.0193
 1438SOL     OW 4268   1.991   2.455   0.510  0.2927 -0.0063 -0.1353
 1438SOL    HW1 4269   1.999   2.547   0.548  1.7446  0.0452 -0.4827
 1438SOL    HW2 4270   1.907   2.412   0.542 -1.2225  1.9938 -1.1786
 1439SOL     OW 4271   2.770   3.128   0.653  0.6668 -0.0328  0.0398
 1439SOL    HW1 4272   2.781   3.137   0.752 -0.5097  0.9934  0.1019
 1439SOL    HW2 4273   2.859   3.139   0.608  0.9895  1.0436  0.8894
 1440SOL     OW 4274   3.444   2.147   0.905 -0.6079 -0.3660 -0.2857
 1440SOL    HW1 4275   3.436   2.088   0.986 -0.9895 -1.0650 -0.8196
 1440SOL    HW2 4276   3.357   2.148   0.856 -0.1266 -0.6947 -1.1827
 1441SOL     OW 4277   2.502   2.719   0.491 -0.6691  0.2612  0.2199
 1441SOL    HW1 4278   2.568   2.791   0.512 -2.4021  1.7676  0.7562
 1441SOL    HW2 4279   2.410   2.748   0.519 -1.8696 -1.0547 -2.0218
 1442SOL     OW 4280   0.565   1.878   1.990 -0.3602 -0.6595  0.1723
 1442SOL    HW1 4281   0.660   1.900   1.965 -0.4931 -0.5406 -0.2387
 1442SOL    HW2 4282   0.558   1.780   2.012 -0.4081 -0.9621 -1.1196
 1443SOL     OW 4283   3.615   1.230   1.789  0.3041  0.0433 -0.2023
 1443SOL    HW1 4284   3.530   1.187   1.758  0.1939 -0.1702  0.3821
 1443SOL    HW2 4285   3.631   1.207   1.885  0.9523  0.1995 -0.2686
 1444SOL     OW 4286   2.607   2.263   1.736  0.5761 -0.5717 -0.3542
 1444SOL    HW1 4287   2.646   2.238   1.647 -2.2939  0.3161 -1.9760
 1444SOL    HW2 4288   2.623   2.361   1.752  0.3874 -0.5502 -0.2976
 1445SOL     OW 4289   2.286   2.893   3.330  0.1883 -0.5791 -0.7156
 1445SOL    HW1 4290   2.303   2.810   3.383 -0.6276  0.0413  0.5659
 1445SOL    HW2 4291   2.301   2.874   3.233 -0.4160 -2.3396 -0.4989
 1446SOL     OW 4292   1.891   2.405   1.427  0.7446  0.0096  0.3906
 1446SOL    HW1 4293   1.793   2.407   1.446  0.6626 -0.1717  0.0116
 1446SOL    HW2 4294   1.935   2.336   1.484  0.8575  0.9210  1.4373
 1447SOL     OW 4295   3.689   2.775   1.175 -0.2110  0.6667 -0.0164
 1447SOL    HW1 4296   3.619   2.703   1.175 -0.0500  0.4521  1.8466
 1447SOL    HW2 4297   3.779   2.734   1.189  0.0233  1.1300 -0.1527
 1448SOL     OW 4298   0.251   2.180   0.493  0.3256 -0.2738  0.2253
 1448SOL    HW1 4299   0.243   2.265   0.440 -0.3499 -1.3620 -1.5295
 1448SOL    HW2 4300   0.283   2.201   0.585 -0.7271  1.9818  0.1547
 1449SOL     OW 4301   3.528   2.572   1.217 -0.8408  0.0922  0.1359
 1449SOL    HW1 4302   3.498   2.518   1.138  1.6336 -0.8837 -0.2316
 1449SOL    HW2 4303   3.540   2.512   1.296  2.1263 -0.0708 -0.3273
 1450SOL     OW 4304   2.337   0.913   2.252 -0.2476  0.0061 -0.5524
 1450SOL    HW1 4305   2.251   0.900   2.202  1.0799  0.0871 -3.0224
 1450SOL    HW2 4306   2.337   0.855   2.334 -1.9990 -1.2234 -1.3556
 1451SOL     OW 4307   1.823   3.151   1.088 -0.4858 -0.3049  0.0537
 1451SOL    HW1 4308   1.795   3.099   1.008  0.3591 -0.8685  0.1126
 1451SOL    HW2 4309   1.831   3.248   1.064  1.2002 -0.6509 -0.9634
 1452SOL     OW 4310   1.475   3.639   2.889 -0.3282 -0.0394  0.3885
 1452SOL    HW1 4311   1.524   3.576   2.950 -0.5805 -0.0125  0.6204
 1452SOL    HW2 4312   1.392   3.671   2.934 -1.6377 -1.6748 -0.7504
 1453SOL     OW 4313   1.534   1.604   0.277  0.3752  0.7278  0.4427
 1453SOL    HW1 4314   1.524   1.683   0.217 -0.7384  2.5362  2.8493
 1453SOL    HW2 4315   1.580   1.632   0.362 -1.1542 -0.8621  1.8879
 1454SOL     OW 4316   2.775   2.871   1.127 -1.2373 -0.1520 -0.0276
 1454SOL    HW1 4317   2.765   2.959   1.081  0.1626 -0.5742 -1.2433
 1454SOL    HW2 4318   2.732   2.875   1.217 -0.7237  1.9551  0.1858
 1455SOL     OW 4319   2.664   2.441   3.335  0.0684  0.1985  0.0589
 1455SOL    HW1 4320   2.565   2.432   3.322 -0.0396 -0.5222  1.2845
 1455SOL    HW2 4321   2.685   2.529   3.376  0.0580  0.8399 -1.2643
 1456SOL     OW 4322   3.195   3.181   1.998  0.1192 -0.3116 -0.2070
 1456SOL    HW1 4323   3.107   3.154   1.960 -0.4016  0.4514  0.4311
 1456SOL    HW2 4324   3.237   3.102   2.044 -0.5759 -0.4924  0.1282
 1457SOL     OW 4325   0.100   2.247   3.604  0.2446 -0.1876 -0.3847
 1457SOL    HW1 4326   0.052   2.205   3.527 -0.8327  0.8174 -0.2923
 1457SOL    HW2 4327   0.125   2.341   3.581 -1.0172  0.4884  0.8222
 1458SOL     OW 4328   2.644   2.506   0.876 -0.2180  0.2423  0.0102
 1458SOL    HW1 4329   2.561   2.528   0.826  0.9134  0.9496 -1.6416
 1458SOL    HW2 4330   2.638   2.413   0.912 -2.5611  0.9884  1.7872
 1459SOL     OW 4331   2.776   0.507   0.599 -1.1375 -0.0445 -0.2815
 1459SOL    HW1 4332   2.740   0.576   0.662 -3.5633 -1.0137 -0.4932
 1459SOL    HW2 4333   2.701   0.452   0.563  0.5703 -1.9894 -1.1114
 1460SOL     OW 4334   2.268   2.803   0.618 -0.0390  0.9014  0.4749
 1460SOL    HW1 4335   2.265   2.874   0.689 -2.8061  0.3900  0.9806
 1460SOL    HW2 4336   2.188   2.744   0.626  0.7574 -0.6078 -1.6792
 1461SOL     OW 4337   3.571   1.747   1.084  0.1094  0.7711 -0.7909
 1461SOL    HW1 4338   3.598   1.757   0.988  2.0324 -0.6633 -0.4553
 1461SOL    HW2 4339   3.649   1.769   1.142  0.0026 -1.5781  0.3300
 1462SOL     OW 4340   0.547   1.995   0.671 -0.4710  0.1118  0.1674
 1462SOL    HW1 4341   0.482   1.940   0.620 -1.1763  0.8780  0.2227
 1462SOL    HW2 4342   0.567   2.079   0.621 -0.3608  0.3846  0.6601
 1463SOL     OW 4343   2.271   2.804   0.209  0.2021  0.4264 -0.0834
 1463SOL    HW1 4344   2.334   2.842   0.276  0.3489 -1.3248  0.8149
 1463SOL    HW2 4345   2.258   2.870   0.135 -0.1825  2.5308  1.7603
 1464SOL     OW 4346   3.192   2.140   1.457  0.2568 -0.5037 -0.0097
 1464SOL    HW1 4347   3.193   2.240   1.449  0.6506 -0.5331 -0.3919
 1464SOL    HW2 4348   3.271   2.111   1.511 -0.1435 -0.5771  0.5405
 1465SOL     OW 4349   2.247   2.981   2.495  0.2040  0.0696  0.4888
 1465SOL    HW1 4350   2.278   3.063   2.544  1.5772 -0.4241  0.4750
 1465SOL    HW2 4351   2.152   2.994   2.467 -0.0242  1.1227  1.6403
 1466SOL     OW 4352   3.151   3.123   1.243  0.4833 -0.1576  0.3229
 1466SOL    HW1 4353   3.082   3.124   1.316  0.6427 -0.3787  0.4764
 1466SOL    HW2 4354   3.129   3.050   1.179 -0.2802  0.7181 -0.4573
 1467SOL     OW 4355   3.281   0.404   1.070 -0.3138  0.2982 -0.3018
 1467SOL    HW1 4356   3.272   0.318   1.119 -1.1621  0.7176  0.3027
 1467SOL    HW2 4357   3.363   0.452   1.102 -0.2240  0.0419 -0.1406
 1468SOL     OW 4358   0.734   2.719   0.222 -0.3115 -0.0171  0.4786
 1468SOL    HW1 4359   0.692   2.768   0.299 -1.3295  1.4070 -0.9180
 1468SOL    HW2 4360   0.788   2.783   0.167 -2.5998 -0.0473 -2.0424
 1469SOL     OW 4361   1.997   3.149   0.713  0.7383  0.0521  0.2855
 1469SOL    HW1 4362   1.992   3.063   0.763  2.7612 -1.1926 -1.4840
 1469SOL    HW2 4363   1.907   3.171   0.675  0.1434 -1.1670  0.9374
 1470SOL     OW 4364   2.334   2.331   0.427  0.4303  0.1607  0.5061
 1470SOL    HW1 4365   2.271   2.345   0.503  1.0863  2.5409  0.6790
 1470SOL    HW2 4366   2.332   2.411   0.367  3.2894  0.3465  0.5425
 1471SOL     OW 4367   1.973   3.440   3.008 -0.4211 -0.0301  0.0279
 1471SOL    HW1 4368   1.987   3.483   2.919 -3.2108 -0.9810 -0.9841
 1471SOL    HW2 4369   1.914   3.499   3.064 -1.4017 -0.9194 -0.0464
 1472SOL     OW 4370   3.170   1.494   1.239  0.3684  0.5351  0.1558
 1472SOL    HW1 4371   3.131   1.443   1.163 -1.5654 -0.7779  1.9346
 1472SOL    HW2 4372   3.106   1.566   1.267  0.4425  0.1629  1.3444
 1473SOL     OW 4373   2.170   2.965   0.017  0.1246  0.3088 -0.2735
 1473SOL    HW1 4374   2.235   3.013  -0.042  1.6782  2.0025  2.6052
 1473SOL    HW2 4375   2.104   3.031   0.054  0.2867 -0.3233  1.2239
 1474SOL     OW 4376   0.784   3.096   0.927 -0.7138 -0.0317 -0.1080
 1474SOL    HW1 4377   0.863   3.038   0.945  0.1148  1.1531  0.1815
 1474SOL    HW2 4378   0.805   3.159   0.853 -1.5488 -0.0044 -0.3286
 1475SOL     OW 4379   2.418   2.422   3.613 -0.2343  0.0301 -0.2305
 1475SOL    HW1 4380   2.465   2.463   3.691 -1.1400 -0.8130  0.7877
 1475SOL    HW2 4381   2.462   2.336   3.589 -0.6453 -0.2763  0.0974
 1476SOL     OW 4382   2.886   2.586   2.738  0.2091 -0.0958 -0.2011
 1476SOL    HW1 4383   2.861   2.623   2.648  0.3861 -1.3498 -0.7910
 1476SOL    HW2 4384   2.858   2.650   2.809 -1.1481  0.3338 -1.0704
 1477SOL     OW 4385   3.035   2.251   2.315 -0.1995  0.1773 -0.1196
 1477SOL    HW1 4386   3.026   2.190   2.237  0.2134  1.2765 -1.0485
 1477SOL    HW2 4387   2.966   2.228   2.384 -0.5711 -0.7941 -0.8043
 1478SOL     OW 4388   1.237   0.409   1.429  0.3284 -0.0791  0.1554
 1478SOL    HW1 4389   1.308   0.352   1.386  1.2710  1.3245 -0.2504
 1478SOL    HW2 4390   1.234   0.497   1.382 -1.3026  0.1040  0.5706
 1479SOL     OW 4391   3.386   2.758   0.257  0.4049  0.0054  0.2259
 1479SOL    HW1 4392   3.393   2.781   0.354  0.2183  2.0525 -0.2128
 1479SOL    HW2 4393   3.468   2.791   0.210  1.2111 -2.3080 -0.1169
 1480SOL     OW 4394   2.950   2.526   1.231  0.3075 -0.1184  0.1687
 1480SOL    HW1 4395   3.046   2.546   1.211 -0.2618 -0.7446 -4.0204
 1480SOL    HW2 4396   2.943   2.474   1.316  3.5822  0.2828  0.7873
 1481SOL     OW 4397   0.605   2.844   0.423 -0.0517  0.6062  0.1154
 1481SOL    HW1 4398   0.592   2.942   0.443 -1.4687  1.1771 -2.9917
 1481SOL    HW2 4399   0.525   2.793   0.456  1.4202  0.1020  3.2592
 1482SOL     OW 4400   2.986   2.726   2.125  0.0691 -0.1678  0.0499
 1482SOL    HW1 4401   3.015   2.634   2.152  0.9209 -0.1378 -0.7390
 1482SOL    HW2 4402   2.993   2.788   2.204 -0.6129 -0.7908  0.6150
 1483SOL     OW 4403   2.864   2.306   1.949 -0.5119 -0.0719 -0.2482
 1483SOL    HW1 4404   2.824   2.322   2.039  1.4268  0.7631  0.5051
 1483SOL    HW2 4405   2.839   2.381   1.888  2.1030  2.0313  1.0487
 1484SOL     OW 4406   1.354   3.305   0.825 -0.2514  0.1519 -0.3122
 1484SOL    HW1 4407   1.340   3.208   0.845  1.3955 -0.5741 -2.3295
 1484SOL    HW2 4408   1.273   3.342   0.782 -0.8837 -0.3172  0.4376
 1485SOL     OW 4409   2.350   2.220   3.099  0.1490 -0.7010  0.0297
 1485SOL    HW1 4410   2.380   2.181   3.186 -1.5804 -1.6305  0.2563
 1485SOL    HW2 4411   2.316   2.313   3.114 -0.7705 -1.0998  0.4972
 1486SOL     OW 4412   2.397   1.552   1.022 -0.0676 -0.3658 -0.7980
 1486SOL    HW1 4413   2.308   1.507   1.012  0.1570 -0.7615 -1.0586
 1486SOL    HW2 4414   2.412   1.576   1.118 -0.0059 -1.2643 -0.5701
 1487SOL     OW 4415   2.691   0.326   1.135 -0.0221  0.1694  0.5242
 1487SOL    HW1 4416   2.775   0.334   1.081  1.5790  0.8258  2.9424
 1487SOL    HW2 4417   2.707   0.262   1.211 -1.9091 -0.0797  0.7501
 1488SOL     OW 4418   2.935   1.597   1.748  0.2405 -0.0710 -0.2872
 1488SOL    HW1 4419   2.997   1.673   1.769  0.9185  0.2016 -2.8915
 1488SOL    HW2 4420   2.987   1.512   1.741  0.1570 -0.0460 -1.3413
 1489SOL     OW 4421   3.560   3.325   2.867 -0.0273  0.2931 -0.5822
 1489SOL    HW1 4422   3.581   3.259   2.795  0.8809 -1.0950  0.9030
 1489SOL    HW2 4423   3.645   3.357   2.909 -0.5767 -0.0778  0.8607
 1490SOL     OW 4424   2.693   2.933   0.498 -0.2894 -0.2077  0.6399
 1490SOL    HW1 4425   2.782   2.893   0.478  0.6896  2.4673 -0.8898
 1490SOL    HW2 4426   2.705   3.012   0.558 -1.6345  0.2042  0.3927
 1491SOL     OW 4427   1.167   0.703   1.549  0.3818  0.5418 -0.4319
 1491SOL    HW1 4428   1.210   0.704   1.458  0.9528 -3.4548 -0.3850
 1491SOL    HW2 4429   1.238   0.701   1.619  0.0087  0.0035 -0.0672
 1492SOL     OW 4430   2.785   3.017   1.666 -0.3111  0.1242 -0.0587
 1492SOL    HW1 4431   2.730   3.096   1.695 -1.0192  0.0428 -1.1267
 1492SOL    HW2 4432   2.836   2.982   1.744 -1.5217  0.4129  0.9073
 1493SOL     OW 4433   1.388   3.057   3.679  0.1821  0.7711  0.2277
 1493SOL    HW1 4434   1.468   3.117   3.673 -0.4672  1.6329 -0.1055
 1493SOL    HW2 4435   1.406   2.985   3.746  1.3722  0.7183 -0.1164
 1494SOL     OW 4436   3.302   3.653   3.453  0.5382 -0.1361  0.3520
 1494SOL    HW1 4437   3.217   3.633   3.502  1.3098 -0.3161  1.6804
 1494SOL    HW2 4438   3.380   3.643   3.516  1.4322  1.4289 -0.4424
 1495SOL     OW 4439   0.858   3.480   0.563  0.2220  0.0992 -0.3364
 1495SOL    HW1 4440   0.918   3.550   0.601  0.7681  0.6167 -2.0926
 1495SOL    HW2 4441   0.775   3.522   0.527  1.3032  0.1323 -2.9614
 1496SOL     OW 4442   2.080   2.728   2.841  0.4044  0.0648 -0.1484
 1496SOL    HW1 4443   2.036   2.666   2.905  0.4955 -0.0913 -0.2372
 1496SOL    HW2 4444   2.055   2.702   2.747  0.4144  0.1833 -0.1847
 1497SOL     OW 4445   3.518   2.792   0.488 -0.6141  0.6434  0.0703
 1497SOL    HW1 4446   3.457   2.797   0.567  1.3485 -0.9404  1.7704
 1497SOL    HW2 4447   3.592   2.859   0.498  0.7108 -0.8572  0.5686
 1498SOL     OW 4448   0.110   3.162   3.523  0.0693 -0.1628  0.1868
 1498SOL    HW1 4449   0.078   3.073   3.555 -0.3240 -0.6291 -1.3927
 1498SOL    HW2 4450   0.031   3.220   3.503  0.2859 -0.0004 -0.2031
 1499SOL     OW 4451   3.096   1.797   0.407  0.3459  0.6162  0.1125
 1499SOL    HW1 4452   3.121   1.704   0.382  3.1407  1.2398  0.2759
 1499SOL    HW2 4453   3.069   1.800   0.503  0.4817  0.0201  0.1715
 1500SOL     OW 4454   3.564   0.206   0.059  0.3006 -0.5440 -0.0119
 1500SOL    HW1 4455   3.627   0.166  -0.008  1.8894  1.1972  0.3602
 1500SOL    HW2 4456   3.495   0.259   0.010  1.5628  0.8746 -0.3420
 1501SOL     OW 4457   2.346   3.199   2.629 -0.3237  0.2474  0.4143
 1501SOL    HW1 4458   2.407   3.218   2.705  0.0766 -0.3886  0.2592
 1501SOL    HW2 4459   2.392   3.222   2.543  0.5811 -2.2435  0.1415
 1502SOL     OW 4460   1.149   1.027   0.937 -0.2250  0.0534  0.2656
 1502SOL    HW1 4461   1.057   1.047   0.971  0.1518 -0.1125  1.4189
 1502SOL    HW2 4462   1.214   1.034   1.012  0.6204 -0.4753 -0.4081
 1503SOL     OW 4463   3.154   2.586   1.775 -0.1758 -0.5430  0.0167
 1503SOL    HW1 4464   3.055   2.570   1.782 -0.4561  0.2513 -1.6774
 1503SOL    HW2 4465   3.179   2.599   1.679  1.5667 -0.5981  0.4346
 1504SOL     OW 4466   2.544   1.017   2.086 -0.2922  0.6463 -0.1959
 1504SOL    HW1 4467   2.472   0.988   2.149  1.7453 -1.8935  1.1597
 1504SOL    HW2 4468   2.624   1.048   2.138 -0.0708  2.7184 -1.6466
 1505SOL     OW 4469   0.060   3.092   3.039  0.0994 -0.2423  0.1661
 1505SOL    HW1 4470   0.100   3.002   3.057 -0.5180  0.1310  4.4639
 1505SOL    HW2 4471  -0.040   3.084   3.039  0.0451  0.4253  0.5979
 1506SOL     OW 4472   0.873   3.273   0.186  0.4443 -0.0008  0.8010
 1506SOL    HW1 4473   0.963   3.288   0.229  1.0109 -0.4907 -0.1753
 1506SOL    HW2 4474   0.841   3.358   0.145  0.8039  0.0037  0.5263
 1507SOL     OW 4475   2.811   1.952   0.830  0.1459  0.6848 -0.2134
 1507SOL    HW1 4476   2.732   1.920   0.777  1.5829  0.7894 -2.5534
 1507SOL    HW2 4477   2.805   2.051   0.841 -1.9764  0.3485  3.1005
 1508SOL     OW 4478   1.883   1.259   3.338  0.7330  0.6354 -0.3497
 1508SOL    HW1 4479   1.861   1.235   3.433  1.5066  2.2512  0.2817
 1508SOL    HW2 4480   1.840   1.347   3.316  1.2445  0.6715 -1.2321
 1509SOL     OW 4481   3.039   2.774   3.070 -0.1303 -0.0170 -0.5541
 1509SOL    HW1 4482   3.008   2.842   3.137  0.0110 -0.4969  0.0002
 1509SOL    HW2 4483   3.100   2.818   3.005  0.2685  0.3058  0.0326
 1510SOL     OW 4484   2.006   2.987   2.386  0.2966  0.4257  0.8101
 1510SOL    HW1 4485   1.948   3.054   2.433 -1.5358 -1.1233  0.9228
 1510SOL    HW2 4486   1.981   2.984   2.289 -1.5585 -1.8394  1.2652
 1511SOL     OW 4487   2.166   3.352   2.758 -0.0249  0.2121 -0.0895
 1511SOL    HW1 4488   2.186   3.266   2.712  1.2665  0.2649  0.3353
 1511SOL    HW2 4489   2.068   3.371   2.752 -0.5156 -1.7949  0.6683
 1512SOL     OW 4490   2.487   1.961   1.644  0.2549 -0.0634 -0.6579
 1512SOL    HW1 4491   2.463   1.871   1.681  0.5710 -0.2779 -0.9612
 1512SOL    HW2 4492   2.421   2.029   1.675  1.9115  0.3165  2.5273
 1513SOL     OW 4493   2.547   1.597   1.712 -0.2761 -0.7045  0.5766
 1513SOL    HW1 4494   2.629   1.615   1.657 -0.8340 -1.3712 -0.5057
 1513SOL    HW2 4495   2.552   1.504   1.750 -0.9189 -1.0706 -0.2139
 1514SOL     OW 4496   2.367   3.571   2.709  0.4868 -0.0279  0.3101
 1514SOL    HW1 4497   2.443   3.521   2.668  0.9687  2.1199 -1.6486
 1514SOL    HW2 4498   2.297   3.506   2.739  1.6595 -1.9200 -0.8338
 1515SOL     OW 4499   3.084   3.205   2.411  0.3331 -0.1526  0.1871
 1515SOL    HW1 4500   3.176   3.246   2.416  0.6778 -1.0289  1.5532
 1515SOL    HW2 4501   3.017   3.270   2.447  0.1057  1.2157 -2.4813
 1516SOL     OW 4502   0.067   2.111   1.610  0.4228  0.1736  0.4814
 1516SOL    HW1 4503  -0.004   2.171   1.646  0.8483  0.2890  1.1421
 1516SOL    HW2 4504   0.032   2.017   1.603  0.5013  0.0391  1.7297
 1517SOL     OW 4505   2.779   2.029   2.772  0.6645  0.2767 -0.1626
 1517SOL    HW1 4506   2.763   1.953   2.709  0.5313  0.1417  0.0320
 1517SOL    HW2 4507   2.735   2.009   2.860 -0.5659  1.1832 -0.5409
 1518SOL     OW 4508   1.168   0.266   3.061 -0.0300 -0.1243 -0.5016
 1518SOL    HW1 4509   1.212   0.343   3.109  1.0003 -0.8457 -0.2640
 1518SOL    HW2 4510   1.069   0.278   3.063  0.1271  1.4915 -0.9507
 1519SOL     OW 4511   2.333   3.071   3.545 -0.3363 -0.3257 -0.1971
 1519SOL    HW1 4512   2.326   3.168   3.518 -0.3153 -0.1369  0.4556
 1519SOL    HW2 4513   2.312   3.013   3.466  1.6631  0.1863 -1.1662
 1520SOL     OW 4514   2.599   2.092   1.968 -0.4730  0.5661 -0.6020
 1520SOL    HW1 4515   2.650   2.150   2.032  0.5186 -0.1557 -0.7033
 1520SOL    HW2 4516   2.587   2.140   1.881 -0.7359  1.0774 -0.2851
 1521SOL     OW 4517   1.854   0.310   0.439 -0.3907 -0.0027  0.2491
 1521SOL    HW1 4518   1.935   0.325   0.384  0.2116 -0.9530  0.8468
 1521SOL    HW2 4519   1.773   0.310   0.380 -0.2592  3.1153 -0.0942
 1522SOL     OW 4520   1.179   0.835   2.734  0.2917 -0.2183 -0.4779
 1522SOL    HW1 4521   1.204   0.742   2.760  0.2239 -0.0649  0.1740
 1522SOL    HW2 4522   1.140   0.836   2.642  0.8738 -0.7389 -0.7326
 1523SOL     OW 4523   3.439   3.215   3.069 -0.3749  0.0501 -0.1296
 1523SOL    HW1 4524   3.470   3.252   2.981  0.7696  0.7220  0.5319
 1523SOL    HW2 4525   3.440   3.288   3.138 -2.1847 -0.2299  0.2516
 1524SOL     OW 4526   2.103   3.032   0.494 -0.2859  0.5607 -0.0748
 1524SOL    HW1 4527   2.063   3.085   0.569 -1.2908 -0.1069 -0.1076
 1524SOL    HW2 4528   2.167   2.965   0.532 -1.0998 -0.0584  0.2643
 1525SOL     OW 4529   0.842   3.058   1.976  0.1121 -0.4462  0.2803
 1525SOL    HW1 4530   0.819   3.060   2.073  2.2523 -0.8361  0.8325
 1525SOL    HW2 4531   0.788   2.987   1.931  2.0278 -3.2257  2.0506
 1526SOL     OW 4532   1.498   0.979   2.824 -0.2054 -0.3748 -0.1518
 1526SOL    HW1 4533   1.450   1.064   2.800  0.3393 -0.2936 -0.9975
 1526SOL    HW2 4534   1.581   0.971   2.768 -1.1485 -2.3525 -1.3930
 1527SOL     OW 4535   2.678   0.291   3.007  0.6033 -0.4999  0.2403
 1527SOL    HW1 4536   2.685   0.198   3.042  1.3033 -0.0949  1.2201
 1527SOL    HW2 4537   2.770   0.332   3.002  0.3822 -0.1057 -0.8583
 1528SOL     OW 4538   2.658   3.485   1.630 -0.2519  0.7168 -0.0463
 1528SOL    HW1 4539   2.567   3.523   1.611 -0.8350  0.4361  1.9588
 1528SOL    HW2 4540   2.678   3.412   1.566 -1.2091  1.1538 -0.8670
 1529SOL     OW 4541   2.009   2.931   0.886  0.1453 -0.0015  0.1626
 1529SOL    HW1 4542   1.996   2.896   0.979 -0.3140 -0.3659 -0.0296
 1529SOL    HW2 4543   2.106   2.937   0.866  0.2563  0.4400  0.7994
 1530SOL     OW 4544   3.161   0.600   3.094 -0.5220 -0.2809  0.0968
 1530SOL    HW1 4545   3.083   0.641   3.141 -0.0391  0.2039  0.4947
 1530SOL    HW2 4546   3.244   0.648   3.121 -0.1769 -0.3188 -0.8872
 1531SOL     OW 4547   0.175   2.318   2.727  0.7396 -0.4214  0.1318
 1531SOL    HW1 4548   0.233   2.268   2.791 -0.8695 -1.0378  1.1694
 1531SOL    HW2 4549   0.198   2.291   2.634  1.9853 -0.7798  0.5216
 1532SOL     OW 4550   2.499   1.280   0.859  0.4812 -0.1843 -0.3017
 1532SOL    HW1 4551   2.405   1.298   0.888 -0.3857 -1.9229 -1.7971
 1532SOL    HW2 4552   2.548   1.366   0.848  0.0949  0.7088  3.4849
 1533SOL     OW 4553   2.894   0.672   1.766 -0.3570  0.7925 -0.1783
 1533SOL    HW1 4554   2.914   0.575   1.754  2.8725  1.4490 -0.9942
 1533SOL    HW2 4555   2.805   0.682   1.810 -1.8292 -2.4249 -2.0885
 1534SOL     OW 4556   1.837   2.535   2.041  0.1682  0.1039  0.0738
 1534SOL    HW1 4557   1.892   2.457   2.072  0.5053  0.1848 -0.3119
 1534SOL    HW2 4558   1.868   2.564   1.951 -0.8057 -0.1264 -0.3500
 1535SOL     OW 4559   3.678   2.673   2.672  0.5532 -0.6239 -0.7370
 1535SOL    HW1 4560   3.717   2.592   2.716  0.6552  0.3742  1.0669
 1535SOL    HW2 4561   3.578   2.668   2.679  0.5953 -0.0380  0.4369
 1536SOL     OW 4562   1.050   3.176   1.426 -0.6146  0.0259  0.5023
 1536SOL    HW1 4563   1.059   3.097   1.486  0.9649 -0.6379 -0.5437
 1536SOL    HW2 4564   0.953   3.202   1.421 -1.3008 -2.2369  0.4008
 1537SOL     OW 4565   1.948   2.793   3.252 -0.2804 -0.0073 -0.1024
 1537SOL    HW1 4566   1.972   2.862   3.184 -0.0037 -0.4176 -0.4302
 1537SOL    HW2 4567   1.857   2.756   3.232 -0.2774  0.0064 -0.1407
 1538SOL     OW 4568   0.101   2.667   1.484 -0.0887 -0.0051  0.0051
 1538SOL    HW1 4569   0.146   2.755   1.500  0.8573 -0.7825  1.9251
 1538SOL    HW2 4570   0.002   2.681   1.481  0.0892  1.2838 -1.0276
 1539SOL     OW 4571   2.902   3.576   3.294 -0.0936 -0.1890  0.3492
 1539SOL    HW1 4572   2.961   3.511   3.342  1.6784  0.2006 -1.2043
 1539SOL    HW2 4573   2.812   3.535   3.282  0.2031 -1.3229  1.6372
 1540SOL     OW 4574   2.350   2.787   2.669  0.0751 -0.6646  0.2008
 1540SOL    HW1 4575   2.278   2.743   2.722 -0.7141 -0.0879 -0.3843
 1540SOL    HW2 4576   2.314   2.868   2.622  0.8860 -0.8575 -0.8015
 1541SOL     OW 4577   2.830   2.211   3.285 -0.0397 -0.1800 -0.1177
 1541SOL    HW1 4578   2.891   2.239   3.210 -1.1603  0.6985 -0.7337
 1541SOL    HW2 4579   2.765   2.284   3.303 -1.1364 -1.2346  0.2975
 1542SOL     OW 4580   2.503   3.127   2.046  0.0104  0.3072 -0.3634
 1542SOL    HW1 4581   2.563   3.195   2.089 -1.1634  1.8114 -1.0041
 1542SOL    HW2 4582   2.551   3.040   2.040  1.5682  1.0487  0.5173
 1543SOL     OW 4583   3.379   3.270   2.591 -0.1899 -0.3099 -0.4569
 1543SOL    HW1 4584   3.343   3.290   2.682 -0.8680 -1.0215 -0.5553
 1543SOL    HW2 4585   3.342   3.335   2.525 -0.5039 -0.4186 -0.3883
 1544SOL     OW 4586   1.971   2.609   0.264  0.1784  0.5250  0.1376
 1544SOL    HW1 4587   1.940   2.552   0.340 -0.8624  1.0812  0.1520
 1544SOL    HW2 4588   2.064   2.582   0.237 -0.9032 -2.4509 -1.0581
 1545SOL     OW 4589   0.898   1.279   2.149 -0.4514 -0.3130 -0.0059
 1545SOL    HW1 4590   0.887   1.377   2.138  1.0052  0.0264  1.2597
 1545SOL    HW2 4591   0.813   1.233   2.121 -1.0775  1.2518 -0.8381
 1546SOL     OW 4592   1.703   2.723   3.155 -0.2548  0.0439 -0.8525
 1546SOL    HW1 4593   1.682   2.640   3.102  1.0793  0.0998 -1.5285
 1546SOL    HW2 4594   1.683   2.803   3.100 -1.0090  0.1706 -0.4067
 1547SOL     OW 4595   1.692   3.536   1.736 -0.6365  0.2991  0.6244
 1547SOL    HW1 4596   1.784   3.500   1.719 -0.9986 -0.4481  0.1601
 1547SOL    HW2 4597   1.681   3.553   1.834  0.2008  0.9955  0.6108
 1548SOL     OW 4598   1.066   3.358   3.285  0.0412 -0.2239 -0.1266
 1548SOL    HW1 4599   1.006   3.431   3.254 -0.3819 -0.0728  1.0136
 1548SOL    HW2 4600   1.057   3.346   3.384  1.8808 -0.2192  0.0723
 1549SOL     OW 4601   0.209   2.589   2.117  0.7219  0.4861 -0.8987
 1549SOL    HW1 4602   0.242   2.512   2.062 -0.8579 -0.9723  0.0830
 1549SOL    HW2 4603   0.277   2.611   2.187  0.6815 -0.8737 -0.3995
 1550SOL     OW 4604   2.084   1.832   3.271  0.3920 -0.1442 -0.1292
 1550SOL    HW1 4605   2.072   1.776   3.189  2.6177 -0.3754 -0.3720
 1550SOL    HW2 4606   2.024   1.798   3.343  0.2725 -1.6366 -0.8770
 1551SOL     OW 4607   2.652   3.483   0.639 -0.0754  0.4208  0.7585
 1551SOL    HW1 4608   2.739   3.467   0.594 -0.3055  0.4484  0.3028
 1551SOL    HW2 4609   2.581   3.427   0.596 -0.2382  0.2243  1.2741
 1552SOL     OW 4610   2.644   3.514   2.577  0.5874  0.2367  0.7174
 1552SOL    HW1 4611   2.690   3.585   2.524  0.7117 -1.4765 -1.6569
 1552SOL    HW2 4612   2.671   3.520   2.673 -0.2234  3.9700  0.8592
 1553SOL     OW 4613   2.460   1.868   0.195  0.1308 -0.0894  0.3396
 1553SOL    HW1 4614   2.401   1.804   0.246  0.4242 -1.1017 -0.5663
 1553SOL    HW2 4615   2.462   1.956   0.243  2.0492 -1.5645  3.2870
 1554SOL     OW 4616   3.490   2.140   3.191 -0.0101  0.4112  0.0160
 1554SOL    HW1 4617   3.559   2.142   3.263  1.6269  1.6752 -1.5138
 1554SOL    HW2 4618   3.530   2.172   3.105 -2.2593  0.2366 -1.1679
 1555SOL     OW 4619   2.144   0.208   2.647 -0.3603 -0.4932 -0.0413
 1555SOL    HW1 4620   2.135   0.281   2.714  0.3482 -0.8677  0.4787
 1555SOL    HW2 4621   2.241   0.193   2.627 -0.4677 -1.5672  0.1828
 1556SOL     OW 4622   1.648   0.588   0.384  1.2710  0.7805  0.1494
 1556SOL    HW1 4623   1.661   0.533   0.467 -0.5385 -0.4403 -0.3080
 1556SOL    HW2 4624   1.577   0.656   0.401  0.9561  0.5819 -0.3478
 1557SOL     OW 4625   2.413   1.931   2.178  0.4180  0.5407 -0.1057
 1557SOL    HW1 4626   2.466   1.992   2.119 -0.0614  0.1366 -0.9712
 1557SOL    HW2 4627   2.328   1.906   2.132 -0.9687  1.8424  1.5910
 1558SOL     OW 4628   2.648   0.759   0.067 -0.0398 -0.2715  0.0840
 1558SOL    HW1 4629   2.624   0.856   0.075  1.9815  0.4818 -1.9843
 1558SOL    HW2 4630   2.639   0.716   0.157  0.3230  2.1523  1.3791
 1559SOL     OW 4631   3.146   1.618   3.421  0.1849 -0.5245  0.4880
 1559SOL    HW1 4632   3.112   1.528   3.449  1.2460 -1.7547 -1.8693
 1559SOL    HW2 4633   3.070   1.683   3.416 -0.8881 -1.7307  0.6231
 1560SOL     OW 4634   2.978   1.674   1.287  0.1038 -0.4270  0.4668
 1560SOL    HW1 4635   2.943   1.714   1.202  3.5679  0.4470 -0.6946
 1560SOL    HW2 4636   2.998   1.747   1.353 -1.8729 -1.0477  1.8665
 1561SOL     OW 4637   0.152   3.217   2.656  0.0482  0.2353 -0.2347
 1561SOL    HW1 4638   0.086   3.185   2.724  0.1083  0.9077  0.1486
 1561SOL    HW2 4639   0.107   3.225   2.567  0.0209 -0.8506 -0.3306
 1562SOL     OW 4640   0.954   0.571   3.156  0.1049  0.5223 -0.4527
 1562SOL    HW1 4641   0.943   0.490   3.098  1.1560 -0.2122  0.3256
 1562SOL    HW2 4642   0.871   0.584   3.211  0.1488 -0.4030 -0.1446
 1563SOL     OW 4643   0.284   3.459   3.359 -0.3145 -0.3192  0.3007
 1563SOL    HW1 4644   0.235   3.505   3.285  0.9779  0.4664 -0.0878
 1563SOL    HW2 4645   0.301   3.363   3.333 -0.3916 -0.2092 -0.1635
 1564SOL     OW 4646   3.524   2.690   1.545 -0.1017 -0.4255 -0.2376
 1564SOL    HW1 4647   3.544   2.638   1.628  0.1818 -2.1147 -1.3306
 1564SOL    HW2 4648   3.482   2.777   1.571 -2.2138 -1.8746  1.5886
 1565SOL     OW 4649   2.886   3.622   1.915 -0.9084 -0.4184  0.6973
 1565SOL    HW1 4650   2.826   3.585   1.986 -0.7841 -1.7334  0.1412
 1565SOL    HW2 4651   2.902   3.552   1.845  0.6629  0.1449  0.4489
 1566SOL     OW 4652   3.644   3.524   2.664 -0.5568  0.2680  0.2311
 1566SOL    HW1 4653   3.684   3.500   2.576 -0.4457  0.4896  0.2209
 1566SOL    HW2 4654   3.642   3.443   2.724  1.2146  0.5750  0.7501
 1567SOL     OW 4655   1.034   2.853   3.663  0.6587 -0.4430  0.4452
 1567SOL    HW1 4656   1.057   2.909   3.583 -0.9243 -0.9482 -0.4016
 1567SOL    HW2 4657   0.981   2.908   3.727 -1.9255 -1.1944 -0.9238
 1568SOL     OW 4658   3.160   2.039   3.048  0.1148 -0.3217 -0.1335
 1568SOL    HW1 4659   3.113   2.090   2.976  0.2734  0.1871  0.1199
 1568SOL    HW2 4660   3.247   2.005   3.014 -0.4578 -1.3312 -0.6295
 1569SOL     OW 4661   2.181   2.581   2.257 -0.6666 -0.2820 -0.5057
 1569SOL    HW1 4662   2.258   2.574   2.321  1.1687  2.8365 -2.1529
 1569SOL    HW2 4663   2.112   2.644   2.294 -0.1718  0.5760 -1.0041
 1570SOL     OW 4664   0.170   0.204   2.227 -0.2061 -0.3365  0.2910
 1570SOL    HW1 4665   0.201   0.275   2.164 -0.5675  0.0630  0.5552
 1570SOL    HW2 4666   0.249   0.153   2.262 -0.0676 -1.4576 -1.4941
 1571SOL     OW 4667   1.903   0.213   2.457  0.0785 -0.0979  0.0480
 1571SOL    HW1 4668   1.863   0.260   2.536 -0.0196  0.3334 -0.2542
 1571SOL    HW2 4669   1.987   0.166   2.485  1.4898  2.1787 -0.0970
 1572SOL     OW 4670   3.008   1.782   2.507 -0.1047 -0.2407 -0.0411
 1572SOL    HW1 4671   2.928   1.840   2.491 -0.6335 -0.4433  1.6950
 1572SOL    HW2 4672   2.986   1.714   2.576  1.5391 -0.3897  0.3591
 1573SOL     OW 4673   3.065   1.757   2.185  0.4964  0.5052 -0.1340
 1573SOL    HW1 4674   3.105   1.786   2.272 -0.0747 -0.4352  0.4617
 1573SOL    HW2 4675   3.131   1.699   2.136  0.5473  0.4284  0.0214
 1574SOL     OW 4676   3.612   3.087   2.747 -0.2247 -0.2207  0.3617
 1574SOL    HW1 4677   3.588   3.022   2.819 -1.4302  0.9152  1.0288
 1574SOL    HW2 4678   3.565   3.061   2.662  0.6146 -1.1357  0.1511
 1575SOL     OW 4679   3.468   0.546   2.183  0.1300 -0.0135 -0.0556
 1575SOL    HW1 4680   3.387   0.603   2.171  0.9483  1.3612  0.7045
 1575SOL    HW2 4681   3.440   0.456   2.218 -1.1687 -0.0637 -1.1508
 1576SOL     OW 4682   1.522   2.295   3.046  0.2145  0.1331 -0.7477
 1576SOL    HW1 4683   1.427   2.312   3.072  0.1500  2.4732 -2.2644
 1576SOL    HW2 4684   1.525   2.228   2.971 -0.2412  0.2022 -0.8260
 1577SOL     OW 4685   3.641   2.455   2.382 -0.2565 -0.2340 -0.4305
 1577SOL    HW1 4686   3.639   2.537   2.440  1.8263 -1.4976  1.6541
 1577SOL    HW2 4687   3.574   2.464   2.308 -1.8477  2.2411  1.1533
 1578SOL     OW 4688   3.478   2.615   2.940 -0.5909  0.1188 -1.3290
 1578SOL    HW1 4689   3.539   2.543   2.907  0.5679 -0.9219  2.5186
 1578SOL    HW2 4690   3.449   2.593   3.033 -1.3904  3.9187 -0.5258
 1579SOL     OW 4691   3.009   3.165   2.746 -0.4460  1.1496 -0.4715
 1579SOL    HW1 4692   3.021   3.231   2.672  0.8192  0.1135 -1.2304
 1579SOL    HW2 4693   3.085   3.101   2.746 -0.5816  0.9146  1.5393
 1580SOL     OW 4694   3.578   2.206   2.951 -0.3449  0.1776  0.0044
 1580SOL    HW1 4695   3.623   2.288   2.916 -0.4884  0.4658  0.4874
 1580SOL    HW2 4696   3.551   2.147   2.874 -0.2187  0.5701 -0.3423
 1581SOL     OW 4697   2.400   2.850   2.297 -0.1941 -1.0918  0.2943
 1581SOL    HW1 4698   2.321   2.882   2.349 -2.2655 -2.2151 -2.0215
 1581SOL    HW2 4699   2.477   2.913   2.313 -2.1277  1.2692  0.9642
 1582SOL     OW 4700   3.262   2.056   2.312  0.1752 -0.2685  0.2835
 1582SOL    HW1 4701   3.342   2.106   2.346  0.1672  0.5705 -0.8772
 1582SOL    HW2 4702   3.208   2.116   2.253 -1.2956 -0.8443  0.9962
 1583SOL     OW 4703   1.505   3.267   2.891  0.3781  0.0196  0.2132
 1583SOL    HW1 4704   1.426   3.290   2.947 -0.9405  0.0196 -1.5602
 1583SOL    HW2 4705   1.584   3.321   2.920 -1.0879  2.3954 -0.0342
 1584SOL     OW 4706   3.149   2.331   1.894  0.4753  0.0138  0.1149
 1584SOL    HW1 4707   3.191   2.398   1.833  1.8634  0.6425  1.6767
 1584SOL    HW2 4708   3.050   2.342   1.892  0.5845  0.9889 -0.9124
 1585SOL     OW 4709   3.531   2.373   1.409 -0.3492  0.1049 -0.4813
 1585SOL    HW1 4710   3.551   2.286   1.363  0.9607  1.0062 -1.7335
 1585SOL    HW2 4711   3.584   2.379   1.494 -0.7121 -0.4525 -0.2103
 1586SOL     OW 4712   2.635   0.388   3.475 -0.1008 -0.0899 -0.0386
 1586SOL    HW1 4713   2.597   0.297   3.486 -0.1007  0.0206  0.9917
 1586SOL    HW2 4714   2.723   0.382   3.429  1.5065 -1.0036  2.8840
 1587SOL     OW 4715   2.864   3.455   0.464  0.4038 -0.2879 -0.3139
 1587SOL    HW1 4716   2.933   3.417   0.402 -1.3643 -1.8355 -1.4345
 1587SOL    HW2 4717   2.905   3.528   0.519  2.2984  0.5847 -2.6902
 1588SOL     OW 4718   2.039   2.071   1.042  0.2099 -0.1247  0.3087
 1588SOL    HW1 4719   2.121   2.032   1.002  0.7913  0.1232  1.2085
 1588SOL    HW2 4720   1.965   2.003   1.042  0.6265 -0.5808  0.1342
 1589SOL     OW 4721   2.460   1.078   2.462 -0.4593  0.3155  0.0685
 1589SOL    HW1 4722   2.387   1.042   2.403 -3.3092  1.0142  2.8472
 1589SOL    HW2 4723   2.489   1.167   2.428 -1.6817  0.4961 -0.5864
 1590SOL     OW 4724   2.259   1.786   1.242  0.1385  0.4639 -0.3849
 1590SOL    HW1 4725   2.296   1.700   1.277 -1.3807  0.6474  1.8932
 1590SOL    HW2 4726   2.165   1.772   1.211  0.4308  0.9734 -1.5409
 1591SOL     OW 4727   2.115   2.333   0.029 -0.1292  0.4214  0.1720
 1591SOL    HW1 4728   2.190   2.378   0.078 -0.5659  0.2069  1.0574
 1591SOL    HW2 4729   2.130   2.342  -0.070  1.0628  0.3753  0.3311
 1592SOL     OW 4730   2.541   2.528   2.622 -0.0886  0.4833  0.6523
 1592SOL    HW1 4731   2.451   2.504   2.658 -0.4052  0.8591  0.1390
 1592SOL    HW2 4732   2.586   2.592   2.684 -0.0693  0.0940  1.0390
 1593SOL     OW 4733   0.598   1.492   3.230  0.1352 -0.3414 -0.5754
 1593SOL    HW1 4734   0.622   1.408   3.182 -0.8346 -0.5508 -0.7215
 1593SOL    HW2 4735   0.546   1.552   3.169  2.2828  1.1631 -1.0400
 1594SOL     OW 4736   1.868   1.210   2.113  0.8456  0.3717  0.2961
 1594SOL    HW1 4737   1.861   1.237   2.209 -0.0557 -0.4462  0.4663
 1594SOL    HW2 4738   1.964   1.189   2.092  1.3913  2.3938  0.4828
 1595SOL     OW 4739   2.526   0.390   2.794  0.0161  0.6148  0.2365
 1595SOL    HW1 4740   2.467   0.313   2.767  1.2820  0.5113 -2.5988
 1595SOL    HW2 4741   2.590   0.359   2.864 -0.6840 -0.4086  0.4510
 1596SOL     OW 4742   1.816   0.085   2.231 -0.1435  0.6685  0.0422
 1596SOL    HW1 4743   1.719   0.064   2.221 -0.1844  0.8169  0.1267
 1596SOL    HW2 4744   1.834   0.117   2.324 -0.0393  0.7765 -0.0150
 1597SOL     OW 4745   0.403   2.679   2.291  0.6773  0.5205 -0.0809
 1597SOL    HW1 4746   0.393   2.772   2.257  0.1930  0.3111 -0.5273
 1597SOL    HW2 4747   0.500   2.653   2.289  0.8954  1.2511  0.7090
 1598SOL     OW 4748   0.434   2.501   2.725 -0.1595 -0.1085 -0.0609
 1598SOL    HW1 4749   0.392   2.436   2.789 -0.4882  0.7128  0.5670
 1598SOL    HW2 4750   0.487   2.569   2.775 -1.9530  1.6779 -0.4771
 1599SOL     OW 4751   3.514   2.165   2.405  0.6304 -0.2374  0.1788
 1599SOL    HW1 4752   3.525   2.248   2.460  0.6369  0.9936 -1.5807
 1599SOL    HW2 4753   3.585   2.099   2.430  2.7580  1.6093 -0.6154
 1600SOL     OW 4754   3.428   2.633   2.651 -0.4732 -0.4528  0.3749
 1600SOL    HW1 4755   3.346   2.595   2.608 -1.0328  0.8189  0.2800
 1600SOL    HW2 4756   3.414   2.640   2.749 -1.1146  1.2172  0.1939
 1601SOL     OW 4757   1.795   2.405   0.837  0.6419 -0.1666  0.0989
 1601SOL    HW1 4758   1.872   2.461   0.869 -0.2133  0.8595  0.4067
 1601SOL    HW2 4759   1.719   2.414   0.901 -0.4391  0.4107 -1.2283
 1602SOL     OW 4760   2.862   3.124   2.241  0.3450  0.2037 -0.0142
 1602SOL    HW1 4761   2.791   3.068   2.284  1.2635 -1.3029 -0.3762
 1602SOL    HW2 4762   2.943   3.125   2.300  0.6273  0.4638 -0.4050
 1603SOL     OW 4763   3.288   2.917   2.118  0.3660 -0.9238 -0.5896
 1603SOL    HW1 4764   3.372   2.925   2.173  0.5629 -2.3112 -0.6485
 1603SOL    HW2 4765   3.209   2.908   2.178  0.0062  1.9464 -0.4929
 1604SOL     OW 4766   0.858   0.759   2.800  0.2338  0.5183  0.1240
 1604SOL    HW1 4767   0.922   0.700   2.750  0.5306  2.3789 -1.8243
 1604SOL    HW2 4768   0.884   0.762   2.897  0.6874 -1.8297  0.1323
 1605SOL     OW 4769   0.111   3.356   0.141 -0.0714  0.5017  0.2606
 1605SOL    HW1 4770   0.034   3.329   0.198  0.3671 -0.2557  0.5050
 1605SOL    HW2 4771   0.174   3.279   0.130  0.6315  1.0932  0.0267
 1606SOL     OW 4772   1.322   1.584   2.292 -0.2183 -0.2630 -0.2454
 1606SOL    HW1 4773   1.349   1.620   2.203 -0.4908  1.0587  0.1959
 1606SOL    HW2 4774   1.304   1.486   2.283 -0.9551 -0.0195 -1.8041
 1607SOL     OW 4775   2.753   2.797   2.896  0.4834 -0.2633  0.3188
 1607SOL    HW1 4776   2.740   2.890   2.863 -0.6663 -0.5544 -0.0901
 1607SOL    HW2 4777   2.710   2.786   2.985 -1.7491 -1.0669 -0.7725
 1608SOL     OW 4778   2.583   2.787   1.315 -0.2074  0.1918 -0.3579
 1608SOL    HW1 4779   2.501   2.789   1.374  0.7273 -0.0991  1.0106
 1608SOL    HW2 4780   2.588   2.699   1.268 -0.2549 -0.1100  0.1946
 1609SOL     OW 4781   3.437   1.434   1.626 -0.5595  0.2976  0.4125
 1609SOL    HW1 4782   3.468   1.528   1.638 -0.7660  0.1964  1.9409
 1609SOL    HW2 4783   3.511   1.371   1.654 -0.7916  0.0258  0.4193
 1610SOL     OW 4784   2.109   3.363   3.251  0.5105 -0.5954 -0.4264
 1610SOL    HW1 4785   2.062   3.389   3.166  0.5955 -0.3453 -0.3980
 1610SOL    HW2 4786   2.100   3.265   3.265  1.9076 -0.9132 -1.5913
 1611SOL     OW 4787   0.341   2.699   2.552 -0.1008 -0.4164 -0.0703
 1611SOL    HW1 4788   0.387   2.629   2.606 -1.7680 -0.4518  1.3957
 1611SOL    HW2 4789   0.370   2.693   2.456  2.3260 -0.8794  0.6451
 1612SOL     OW 4790   1.914   3.464   2.706 -0.2331 -0.0270  0.1074
 1612SOL    HW1 4791   1.849   3.535   2.732  1.0263  0.8463  1.0243
 1612SOL    HW2 4792   1.913   3.452   2.607 -1.9955 -0.2728  0.1247
 1613SOL     OW 4793   2.414   2.788   1.510  0.8889 -1.1660 -0.2381
 1613SOL    HW1 4794   2.453   2.813   1.599  2.5286 -0.3710 -1.1304
 1613SOL    HW2 4795   2.403   2.688   1.506  2.7978 -1.4448  0.1338
 1614SOL     OW 4796   0.028   2.038   2.523 -0.4701 -0.7337 -0.2732
 1614SOL    HW1 4797   0.089   2.109   2.488  2.1485 -1.6558  2.0323
 1614SOL    HW2 4798   0.025   1.962   2.457 -0.8917  0.2347 -1.3967
 1615SOL     OW 4799   2.941   3.125   1.966 -0.0333  0.2296  0.0553
 1615SOL    HW1 4800   2.870   3.178   1.921 -0.2487 -0.6577 -0.7025
 1615SOL    HW2 4801   2.924   3.121   2.064  0.2728  1.9550  0.1965
 1616SOL     OW 4802   2.814   0.988   1.898 -0.3231 -0.3106 -0.8252
 1616SOL    HW1 4803   2.733   0.988   1.957 -0.4479  1.2212 -0.9424
 1616SOL    HW2 4804   2.890   0.946   1.946 -0.3232  1.2316  0.6236
 1617SOL     OW 4805   0.410   1.337   3.349  0.2083 -0.1412 -0.9398
 1617SOL    HW1 4806   0.445   1.248   3.320  0.9970  0.7311 -2.8190
 1617SOL    HW2 4807   0.480   1.407   3.335 -0.8673  0.9995 -0.8021
 1618SOL     OW 4808   2.522   0.884   2.657 -0.1886 -0.0239  0.5156
 1618SOL    HW1 4809   2.617   0.865   2.682  0.8886  2.3340 -1.3656
 1618SOL    HW2 4810   2.519   0.962   2.595 -3.2188 -1.3395 -1.2160
 1619SOL     OW 4811   2.584   3.299   2.786 -0.1341 -0.1200  0.0617
 1619SOL    HW1 4812   2.540   3.242   2.855  1.1393 -0.6949  0.4342
 1619SOL    HW2 4813   2.585   3.394   2.816  2.6229 -0.6673  2.1208
 1620SOL     OW 4814   3.246   2.484   0.858  0.1733 -0.3560 -0.1082
 1620SOL    HW1 4815   3.254   2.428   0.776 -0.2836  2.0640 -1.9029
 1620SOL    HW2 4816   3.150   2.496   0.882 -0.0406  2.4935 -1.9370
 1621SOL     OW 4817   2.964   1.478   2.742 -0.1249  0.3709 -0.1338
 1621SOL    HW1 4818   2.905   1.541   2.792 -1.8060 -0.0966 -1.4206
 1621SOL    HW2 4819   3.010   1.416   2.806  1.4347  2.7043  1.1514
 1622SOL     OW 4820   1.948   2.487   2.997 -0.4236 -0.5118 -0.2813
 1622SOL    HW1 4821   1.850   2.505   2.989 -0.9187 -2.1931  1.1645
 1622SOL    HW2 4822   1.962   2.404   3.052  1.8530  1.0193  1.6969
 1623SOL     OW 4823   3.215   0.131   3.269 -0.4748  0.4109  0.1752
 1623SOL    HW1 4824   3.291   0.178   3.224  0.7043 -1.0163  0.5776
 1623SOL    HW2 4825   3.251   0.060   3.329 -2.1559 -0.4633  0.2131
 1624SOL     OW 4826   1.897   3.170   2.991  0.2364  0.2845  0.5318
 1624SOL    HW1 4827   1.859   3.158   2.899  0.2736  0.3837  0.5038
 1624SOL    HW2 4828   1.922   3.265   3.004  0.3384  0.2473  0.6048
 1625SOL     OW 4829   2.767   1.623   1.540 -0.2459 -0.6282  0.0404
 1625SOL    HW1 4830   2.804   1.561   1.472  0.2521  0.7001 -0.9396
 1625SOL    HW2 4831   2.826   1.625   1.621  0.0122 -1.0277 -0.1406
 1626SOL     OW 4832   0.046   1.811   2.349 -0.3110  0.5220  0.0336
 1626SOL    HW1 4833   0.145   1.795   2.349 -0.4596 -0.6499  1.9917
 1626SOL    HW2 4834   0.020   1.852   2.262  1.8944  0.8988 -0.5239
 1627SOL     OW 4835   2.461   3.406   0.125 -0.7199  0.2849  0.7626
 1627SOL    HW1 4836   2.493   3.328   0.071 -1.9202 -0.7538  1.4825
 1627SOL    HW2 4837   2.499   3.399   0.218 -0.5713  0.7458  0.7377
 1628SOL     OW 4838   0.911   2.313   3.572 -0.4099  0.1359  0.3716
 1628SOL    HW1 4839   0.988   2.376   3.585  0.1415 -0.5703  0.6144
 1628SOL    HW2 4840   0.918   2.238   3.638  0.2488 -1.4334 -1.3991
 1629SOL     OW 4841   0.365   2.167   3.668  0.3662 -0.4229 -0.1718
 1629SOL    HW1 4842   0.269   2.189   3.649 -0.1441 -1.2209  1.3031
 1629SOL    HW2 4843   0.369   2.092   3.734  1.9741  0.9260  1.3642
 1630SOL     OW 4844   0.497   2.185   1.758 -0.0037 -0.0355  0.4186
 1630SOL    HW1 4845   0.565   2.220   1.824  0.9354  0.4583 -0.7741
 1630SOL    HW2 4846   0.503   2.238   1.674 -0.9319 -0.9039 -0.2069
 1631SOL     OW 4847   2.634   1.473   3.315 -0.0981  0.5584 -0.3386
 1631SOL    HW1 4848   2.660   1.448   3.222 -0.0469 -1.3627  0.1420
 1631SOL    HW2 4849   2.535   1.481   3.321 -0.0514  1.5848 -0.7398
 1632SOL     OW 4850   3.084   2.840   1.560 -0.0341 -0.7584 -0.5120
 1632SOL    HW1 4851   3.034   2.820   1.644 -0.7274 -1.8736 -1.1668
 1632SOL    HW2 4852   3.133   2.759   1.529  1.4541  0.0618 -0.3903
 1633SOL     OW 4853   3.289   0.098   0.232 -0.1018  0.4450  0.1855
 1633SOL    HW1 4854   3.324   0.179   0.279  1.9729 -0.5509  0.4865
 1633SOL    HW2 4855   3.278   0.119   0.134  1.7557  0.7398  0.0012
 1634SOL     OW 4856   2.639   3.392   3.568 -0.4053 -0.1190  0.1739
 1634SOL    HW1 4857   2.709   3.383   3.638  1.3186 -1.2318 -1.6030
 1634SOL    HW2 4858   2.566   3.453   3.601  1.4776  1.2781  2.0008
 1635SOL     OW 4859   3.583   1.146   1.371 -0.3877 -0.3916 -0.2071
 1635SOL    HW1 4860   3.529   1.114   1.449 -1.0900 -1.1722 -0.9940
 1635SOL    HW2 4861   3.655   1.079   1.351  0.0185 -0.0171 -0.0089
 1636SOL     OW 4862   3.462   2.977   1.650 -0.5577  0.2561 -0.2345
 1636SOL    HW1 4863   3.463   3.011   1.744  0.6220 -0.1629 -0.0685
 1636SOL    HW2 4864   3.425   3.047   1.589 -1.9614  0.2818  0.6165
 1637SOL     OW 4865   2.890   2.295   3.034 -0.0805  0.5973  0.2617
 1637SOL    HW1 4866   2.803   2.335   3.005 -0.5792  0.3432  1.3649
 1637SOL    HW2 4867   2.960   2.367   3.037 -0.5570  1.0619  0.5839
 1638SOL     OW 4868   2.010   2.705   2.418 -0.2515  0.4804 -0.1441
 1638SOL    HW1 4869   1.929   2.709   2.359 -0.2242  3.4690 -0.1639
 1638SOL    HW2 4870   2.027   2.796   2.457  2.9162 -0.1167  0.1450
 1639SOL     OW 4871   2.662   2.253   2.205 -0.2083 -0.0200  0.1030
 1639SOL    HW1 4872   2.662   2.246   2.305 -1.3745  1.1599  0.2077
 1639SOL    HW2 4873   2.574   2.289   2.174  0.4904  0.5463 -1.2952
 1640SOL     OW 4874   2.116   2.032   0.043 -0.1081 -0.0271 -0.1079
 1640SOL    HW1 4875   2.027   1.992   0.020  0.0707 -0.7168  0.3583
 1640SOL    HW2 4876   2.105   2.130   0.059 -0.6642  0.0191 -0.7064
 1641SOL     OW 4877   3.167   1.420   0.669  0.1914  0.6174  0.1027
 1641SOL    HW1 4878   3.248   1.474   0.694  0.3724  0.8700 -0.9528
 1641SOL    HW2 4879   3.168   1.334   0.719  1.0175  0.6929  0.2426
 1642SOL     OW 4880   1.124   3.334   1.669 -0.1145 -0.0485  0.1619
 1642SOL    HW1 4881   1.068   3.286   1.602  0.1343 -2.4876  1.6021
 1642SOL    HW2 4882   1.193   3.389   1.621 -1.5502  0.3632 -1.5676
 1643SOL     OW 4883   2.405   0.137   2.655 -0.1578 -0.2418 -0.0112
 1643SOL    HW1 4884   2.470   0.128   2.580 -0.1809 -0.4089 -0.0111
 1643SOL    HW2 4885   2.366   0.048   2.677  0.5869 -0.3666  0.8642
 1644SOL     OW 4886   1.920   0.205   2.001 -0.5480  0.5868  0.4774
 1644SOL    HW1 4887   2.017   0.194   2.021 -0.2901 -0.0978 -1.0445
 1644SOL    HW2 4888   1.867   0.195   2.085  0.8224  3.2218  1.7839
 1645SOL     OW 4889   2.866   1.928   1.709 -0.7992 -0.4449 -0.4636
 1645SOL    HW1 4890   2.943   1.902   1.768  0.0998 -0.0241 -1.4352
 1645SOL    HW2 4891   2.781   1.914   1.760 -0.0838 -0.5698  0.7662
 1646SOL     OW 4892   1.964   2.886   1.630 -0.9954 -0.3331 -0.3039
 1646SOL    HW1 4893   2.028   2.963   1.628 -1.6462  0.2577  0.8202
 1646SOL    HW2 4894   2.012   2.803   1.602  0.1721  0.1661  0.1397
 1647SOL     OW 4895   2.965   2.955   3.258 -0.4137  0.3816 -0.0705
 1647SOL    HW1 4896   2.885   3.011   3.279  0.1267  0.6859  1.2680
 1647SOL    HW2 4897   3.035   3.012   3.215 -0.8794  0.1177 -1.2301
 1648SOL     OW 4898   3.198   2.966   0.242 -0.4048  0.0797 -0.1212
 1648SOL    HW1 4899   3.260   2.902   0.196  0.1783  1.1536 -0.8948
 1648SOL    HW2 4900   3.236   2.992   0.331 -1.1989 -1.4817  0.7085
 1649SOL     OW 4901   2.661   2.543   1.212 -0.4529  0.1465  0.4569
 1649SOL    HW1 4902   2.645   2.445   1.214 -0.6267  0.1586 -0.2779
 1649SOL    HW2 4903   2.758   2.562   1.228 -0.6341 -0.0684  1.9639
 1650SOL     OW 4904   2.578   3.537   2.888  0.1816  0.2658  0.3751
 1650SOL    HW1 4905   2.571   3.554   2.986 -1.9534 -1.3918  0.6061
 1650SOL    HW2 4906   2.514   3.596   2.839 -0.4835 -0.5277  0.2580
 1651SOL     OW 4907   1.637   2.858   0.424  0.0354  0.2841 -0.0720
 1651SOL    HW1 4908   1.730   2.853   0.387 -0.6164 -0.9363 -1.6737
 1651SOL    HW2 4909   1.625   2.788   0.494  0.9114  1.8113  1.6776
 1652SOL     OW 4910   2.415   2.137   3.343  0.4278 -0.0227 -0.5948
 1652SOL    HW1 4911   2.384   2.041   3.341  0.3729 -0.0065 -0.5345
 1652SOL    HW2 4912   2.452   2.158   3.434 -0.4824  0.3008 -0.2892
 1653SOL     OW 4913   0.109   2.691   3.642 -0.5074  0.6489 -0.2266
 1653SOL    HW1 4914   0.136   2.625   3.571  0.1166  1.2257 -0.5289
 1653SOL    HW2 4915   0.044   2.647   3.704 -0.8578  0.0488 -0.9952
 1654SOL     OW 4916   1.524   3.390   1.567 -0.2743 -0.1586 -0.0807
 1654SOL    HW1 4917   1.546   3.293   1.579  2.3549  0.4156  0.3486
 1654SOL    HW2 4918   1.578   3.444   1.630 -2.2377  1.5933  0.1895
 1655SOL     OW 4919   2.628   2.308   2.464  0.8562 -0.3553  0.0992
 1655SOL    HW1 4920   2.572   2.230   2.493 -0.0795 -0.0825 -0.8992
 1655SOL    HW2 4921   2.598   2.390   2.513 -0.3089 -0.0179 -1.1129
 1656SOL     OW 4922   2.116   0.384   2.892  0.0021  0.8135  0.1869
 1656SOL    HW1 4923   2.192   0.425   2.943 -0.5966  2.3189 -0.0752
 1656SOL    HW2 4924   2.035   0.442   2.901 -1.0604 -0.6369  0.2532
 1657SOL     OW 4925   0.125   1.023   3.285  0.2449 -0.4766 -0.1885
 1657SOL    HW1 4926   0.185   1.031   3.206 -0.9387 -5.1086 -1.8540
 1657SOL    HW2 4927   0.030   1.036   3.257 -0.1963 -2.1779  0.3737
 1658SOL     OW 4928   2.170   3.374   0.161  0.1385  0.3784 -0.2724
 1658SOL    HW1 4929   2.229   3.440   0.114 -0.5832  1.0460 -0.2468
 1658SOL    HW2 4930   2.223   3.291   0.180  0.4666  0.0876 -2.2384
 1659SOL     OW 4931   0.940   0.372   2.192  0.1450 -0.0465 -0.1758
 1659SOL    HW1 4932   0.906   0.436   2.261 -0.2516  0.5455 -0.9068
 1659SOL    HW2 4933   0.980   0.423   2.116  2.4781 -0.7093  0.5280
 1660SOL     OW 4934   2.156   2.959   1.933 -0.3828  0.0407  0.4245
 1660SOL    HW1 4935   2.150   3.050   1.974 -2.0186 -0.2121  0.7934
 1660SOL    HW2 4936   2.075   2.905   1.957  1.7505 -2.5106  2.6006
 1661SOL     OW 4937   3.450   0.017   2.294  0.0614 -0.3244  0.1853
 1661SOL    HW1 4938   3.543   0.024   2.257  0.6649  0.3441  1.7558
 1661SOL    HW2 4939   3.386  -0.003   2.219  1.1113  1.7139 -1.3427
 1662SOL     OW 4940   2.131   2.020   2.859 -0.1788  0.1977  0.1376
 1662SOL    HW1 4941   2.098   1.985   2.947 -0.2976  1.6146  0.6844
 1662SOL    HW2 4942   2.064   2.000   2.787 -1.4924  1.5691  0.9225
 1663SOL     OW 4943   2.695   2.548   2.310 -0.0518  0.1835 -0.5689
 1663SOL    HW1 4944   2.603   2.576   2.335  0.7201  1.3580  1.1717
 1663SOL    HW2 4945   2.707   2.451   2.330 -1.0402 -0.0922 -1.2771
 1664SOL     OW 4946   1.906   0.112   0.173  0.1452 -0.2982 -0.3941
 1664SOL    HW1 4947   1.820   0.160   0.157  1.2156  1.6978 -0.4892
 1664SOL    HW2 4948   1.905   0.025   0.123 -1.6397 -0.1447 -0.7031
 1665SOL     OW 4949   2.754   3.051   2.771 -0.6488 -0.2595  0.2228
 1665SOL    HW1 4950   2.847   3.089   2.771 -0.3045 -1.0892 -0.4911
 1665SOL    HW2 4951   2.688   3.126   2.769 -0.0050  0.3415  0.7419
 1666SOL     OW 4952   3.507   0.681   3.626 -0.1962 -1.1246 -0.7243
 1666SOL    HW1 4953   3.505   0.667   3.725 -0.4776 -1.6118 -0.7977
 1666SOL    HW2 4954   3.588   0.735   3.602 -1.0410  0.5224 -0.0499
 1667SOL     OW 4955   1.740   0.288   2.682  0.1371  0.0854 -0.3861
 1667SOL    HW1 4956   1.666   0.228   2.650 -1.3267  0.8496  1.4031
 1667SOL    HW2 4957   1.785   0.245   2.761 -0.8941  1.2500  0.8832
 1668SOL     OW 4958   3.388   3.132   3.352 -0.2037 -0.2326 -0.0503
 1668SOL    HW1 4959   3.435   3.092   3.273 -0.1101 -0.0258 -0.1007
 1668SOL    HW2 4960   3.334   3.211   3.322 -0.0743 -0.0822  0.1065
 1669SOL     OW 4961   0.660   1.963   1.699  0.1088 -0.1444  0.4142
 1669SOL    HW1 4962   0.582   2.023   1.718  1.1673  1.5533 -0.4665
 1669SOL    HW2 4963   0.640   1.871   1.734 -2.2963  0.2253  0.1656
 1670SOL     OW 4964   1.389   0.736   3.216 -0.0841  0.4310  0.4564
 1670SOL    HW1 4965   1.479   0.753   3.257 -0.5640  0.3386  1.5697
 1670SOL    HW2 4966   1.372   0.804   3.144  0.3153  1.2989  1.1593
 1671SOL     OW 4967   2.968   2.294   0.330  0.0732  0.4072  0.1020
 1671SOL    HW1 4968   3.033   2.249   0.269 -2.0934 -0.1954 -1.9406
 1671SOL    HW2 4969   2.943   2.233   0.404  1.7096  0.6257  0.8774
 1672SOL     OW 4970   0.798   2.034   1.493  0.3834 -0.9466  0.3950
 1672SOL    HW1 4971   0.755   1.999   1.575 -0.3278 -2.6249 -0.6530
 1672SOL    HW2 4972   0.773   1.978   1.414  0.8053  0.7641 -1.0445
 1673SOL     OW 4973   2.615   2.297   1.242  0.2036  0.3401 -0.3051
 1673SOL    HW1 4974   2.688   2.238   1.209  0.5938  0.5703  0.1432
 1673SOL    HW2 4975   2.545   2.242   1.287  0.9014  0.2796  0.7297
 1674SOL     OW 4976   1.501   2.633   0.762 -0.4209  0.3097  0.0279
 1674SOL    HW1 4977   1.491   2.732   0.767  0.2667  0.3960 -0.2143
 1674SOL    HW2 4978   1.531   2.598   0.851 -0.0109  0.3952 -0.0794
 1675SOL     OW 4979   3.291   0.381   2.961 -0.1332 -0.4267 -0.3511
 1675SOL    HW1 4980   3.353   0.335   3.025 -0.8379 -1.3720 -0.3345
 1675SOL    HW2 4981   3.252   0.462   3.006 -0.3368 -0.8717  0.3020
 1676SOL     OW 4982   3.271   2.065   2.645 -0.0572 -0.0812 -0.3906
 1676SOL    HW1 4983   3.190   2.118   2.671  0.0803  0.7755 -1.6349
 1676SOL    HW2 4984   3.244   1.985   2.593 -0.1420 -0.0969 -0.3218
 1677SOL     OW 4985   2.394   1.692   2.793  0.1683  0.1880 -0.2101
 1677SOL    HW1 4986   2.441   1.670   2.879 -0.0024  1.0807  0.1152
 1677SOL    HW2 4987   2.376   1.790   2.789 -0.6118  0.0245 -0.8726
 1678SOL     OW 4988   1.360   0.279   1.034 -0.4756 -0.2451  0.1463
 1678SOL    HW1 4989   1.449   0.278   0.988 -1.1669 -0.4132 -1.2630
 1678SOL    HW2 4990   1.334   0.186   1.059 -0.4595 -0.2484  0.1509
 1679SOL     OW 4991   3.482   1.873   3.218  0.1468 -0.3638  0.2529
 1679SOL    HW1 4992   3.456   1.818   3.138 -0.0018 -1.9504  1.3387
 1679SOL    HW2 4993   3.467   1.970   3.198  1.0284 -0.6195 -1.9674
 1680SOL     OW 4994   1.017   3.548   1.415  0.0371 -1.0405 -0.3085
 1680SOL    HW1 4995   1.017   3.560   1.316  0.3950  0.8113 -0.1312
 1680SOL    HW2 4996   1.105   3.510   1.444  1.1548  1.2493 -0.4783
 1681SOL     OW 4997   0.702   3.506   2.786  0.1233  0.3409  0.1577
 1681SOL    HW1 4998   0.724   3.434   2.721  2.3482  0.0327  1.1745
 1681SOL    HW2 4999   0.637   3.570   2.744  1.2450  0.0006 -2.2727
 1682SOL     OW 5000   2.905   2.151   0.553 -0.3301 -0.1789  0.2915
 1682SOL    HW1 5001   2.811   2.162   0.585 -0.6261  0.1734 -0.6706
 1682SOL    HW2 5002   2.907   2.084   0.478  0.5293 -1.9204  1.7972
 1683SOL     OW 5003   0.550   3.053   3.071 -0.2243  0.3754  0.0357
 1683SOL    HW1 5004   0.499   3.013   2.995 -0.8034  3.4190 -1.3511
 1683SOL    HW2 5005   0.532   3.002   3.155 -1.2804 -1.8037 -1.4245
 1684SOL     OW 5006   0.725   2.300   2.765  0.2680  0.5060 -0.0715
 1684SOL    HW1 5007   0.767   2.390   2.758  0.8310  0.1685 -1.1217
 1684SOL    HW2 5008   0.646   2.305   2.826 -0.5935  2.0363 -1.2537
 1685SOL     OW 5009   3.118   2.502   3.436 -0.6960 -0.0253  0.0024
 1685SOL    HW1 5010   3.163   2.457   3.513 -0.0495  0.6642  0.0428
 1685SOL    HW2 5011   3.150   2.462   3.350 -1.0647 -0.4818  0.0781
 1686SOL     OW 5012   2.974   0.803   1.540  0.1865  0.3872 -0.2291
 1686SOL    HW1 5013   2.899   0.859   1.504  0.8054  0.5454 -1.3109
 1686SOL    HW2 5014   2.940   0.748   1.617 -1.3867 -0.5376 -1.5045
 1687SOL     OW 5015   2.203   2.396   0.663  0.2238  0.0144  0.5165
 1687SOL    HW1 5016   2.126   2.417   0.603  0.3699 -1.5965 -0.2752
 1687SOL    HW2 5017   2.169   2.369   0.753 -0.0345  1.2769  0.8196
 1688SOL     OW 5018   3.642   0.358   3.311 -0.2216  0.3844  0.2203
 1688SOL    HW1 5019   3.616   0.402   3.397 -1.1220  1.9176 -0.7995
 1688SOL    HW2 5020   3.664   0.262   3.329  1.7335  1.1647  2.4851
 1689SOL     OW 5021   2.021   2.932   3.025 -0.2973 -0.4072  0.1215
 1689SOL    HW1 5022   1.960   3.010   3.020 -1.3362 -1.1499  0.7019
 1689SOL    HW2 5023   2.022   2.883   2.938 -1.5653 -1.1128  0.4682
 1690SOL     OW 5024   2.439   2.576   2.378 -0.0686 -0.4188 -0.1108
 1690SOL    HW1 5025   2.433   2.674   2.357  1.0693 -0.0153  1.2815
 1690SOL    HW2 5026   2.486   2.564   2.465  0.5058 -2.2472 -0.6333
 1691SOL     OW 5027   2.260   1.533   3.131 -0.2969  0.0043  0.0008
 1691SOL    HW1 5028   2.255   1.449   3.077  1.9674  0.4300 -0.9681
 1691SOL    HW2 5029   2.179   1.589   3.114 -0.8603 -1.0511 -0.9086
 1692SOL     OW 5030   2.406   3.505   2.307  0.6383 -0.8614 -0.1755
 1692SOL    HW1 5031   2.310   3.527   2.292  0.9428 -0.1387 -1.2280
 1692SOL    HW2 5032   2.422   3.485   2.404 -0.2915  0.4507  0.2674
 1693SOL     OW 5033   2.526   1.990   0.955  0.1620  0.2061  0.4661
 1693SOL    HW1 5034   2.457   1.931   0.912  1.0653 -0.1677 -0.5038
 1693SOL    HW2 5035   2.507   1.997   1.053 -2.2237  1.4393 -0.0042
 1694SOL     OW 5036   2.556   2.196   2.923  0.5355 -0.4160  0.0136
 1694SOL    HW1 5037   2.614   2.268   2.884 -1.3347  1.6606  0.8896
 1694SOL    HW2 5038   2.496   2.235   2.993 -1.9850 -2.4234 -0.8732
 1695SOL     OW 5039   1.402   3.278   2.503 -0.4151  0.6812  0.8175
 1695SOL    HW1 5040   1.422   3.215   2.579  2.7035 -0.2537 -0.6139
 1695SOL    HW2 5041   1.404   3.372   2.537  0.3220  0.2663  2.0077
 1696SOL     OW 5042   1.372   3.427   2.095 -0.4933  0.1281 -0.0974
 1696SOL    HW1 5043   1.350   3.430   2.192  0.2978 -2.0391  0.2206
 1696SOL    HW2 5044   1.296   3.386   2.045 -0.6940  0.7712 -0.3247
 1697SOL     OW 5045   0.439   2.066   2.164 -0.7853 -0.6701  0.0346
 1697SOL    HW1 5046   0.517   2.067   2.226 -0.1017  0.5088 -0.7867
 1697SOL    HW2 5047   0.463   2.014   2.082 -0.7420 -0.0697 -0.3424
 1698SOL     OW 5048   2.586   2.827   2.564 -0.1771  0.6075  0.1593
 1698SOL    HW1 5049   2.641   2.875   2.633 -1.1810  0.8479  0.8156
 1698SOL    HW2 5050   2.504   2.790   2.607  0.2178 -1.1013 -0.4912
 1699SOL     OW 5051   0.861   1.638   2.657  0.7386  0.2727 -0.2232
 1699SOL    HW1 5052   0.837   1.543   2.639 -1.5084  0.2354  2.3167
 1699SOL    HW2 5053   0.802   1.698   2.604  1.0067  0.2433 -0.5560
 1700SOL     OW 5054   1.718   3.299   0.342 -0.7341 -0.2502 -0.5768
 1700SOL    HW1 5055   1.629   3.265   0.373 -1.0791  1.9588  1.1014
 1700SOL    HW2 5056   1.787   3.228   0.356 -1.4667 -0.5259  2.4147
 1701SOL     OW 5057   2.934   3.490   2.978 -0.4217 -0.4944  0.1022
 1701SOL    HW1 5058   2.991   3.530   3.050 -0.2125 -0.0634 -0.2963
 1701SOL    HW2 5059   2.910   3.561   2.912 -0.9995 -0.7867 -0.0070
 1702SOL     OW 5060   3.124   3.191   0.108 -0.1477 -0.3576 -0.9882
 1702SOL    HW1 5061   3.145   3.160   0.015 -0.1180 -1.1879 -0.7170
 1702SOL    HW2 5062   3.165   3.128   0.174  1.0793  1.0197 -0.3766
 1703SOL     OW 5063   1.104   1.049   3.191 -0.3126 -0.6330 -0.1616
 1703SOL    HW1 5064   1.114   1.021   3.096 -1.2254  0.4173 -0.5849
 1703SOL    HW2 5065   1.017   1.016   3.227  0.0888 -1.1423  0.3616
 1704SOL     OW 5066   3.211   1.088   3.516 -0.6071 -0.0728  0.4368
 1704SOL    HW1 5067   3.117   1.078   3.484 -1.4237  3.8960  1.1058
 1704SOL    HW2 5068   3.223   1.037   3.601 -2.1454 -0.6559  0.3376
 1705SOL     OW 5069   3.356   2.793   3.221 -0.0865 -0.3557  0.0332
 1705SOL    HW1 5070   3.306   2.817   3.139  0.3036 -0.8817 -0.3695
 1705SOL    HW2 5071   3.362   2.693   3.228 -0.8541 -0.3455  1.1529
 1706SOL     OW 5072   3.435   0.300   2.345  0.0284 -0.4959  0.3534
 1706SOL    HW1 5073   3.520   0.303   2.398  1.3376 -1.7465 -1.5544
 1706SOL    HW2 5074   3.411   0.205   2.325 -1.8007 -0.1689  0.7478
 1707SOL     OW 5075   2.845   2.048   3.495 -0.0093  0.4202  0.0309
 1707SOL    HW1 5076   2.826   2.092   3.407 -1.4149 -0.9000 -0.3937
 1707SOL    HW2 5077   2.765   1.993   3.521  1.3359 -1.2144  0.8896
 1708SOL     OW 5078   2.389   1.969   2.851 -0.4058  0.7879 -0.0552
 1708SOL    HW1 5079   2.296   2.003   2.851 -0.5397  0.4851 -1.4857
 1708SOL    HW2 5080   2.447   2.029   2.906 -0.9887  2.3149 -1.0287
 1709SOL     OW 5081   3.099   2.937   2.309  0.3977 -0.0738 -0.0192
 1709SOL    HW1 5082   3.087   2.882   2.391 -0.8005  0.3087  0.0767
 1709SOL    HW2 5083   3.109   3.034   2.334  1.0282 -0.0674 -0.2718
 1710SOL     OW 5084   1.637   3.461   3.051 -0.6397  0.5202  0.3594
 1710SOL    HW1 5085   1.719   3.494   3.097 -1.0900 -0.4274  1.9137
 1710SOL    HW2 5086   1.556   3.496   3.098 -1.2300  2.5650 -1.9372
 1711SOL     OW 5087   0.218   1.811   0.935  0.0245  0.0943  0.6915
 1711SOL    HW1 5088   0.257   1.729   0.893 -0.0482  0.2154  0.3824
 1711SOL    HW2 5089   0.291   1.863   0.980  0.0242 -0.2790  1.1251
 1712SOL     OW 5090   0.537   2.700   1.973 -0.6168 -0.2082 -0.1784
 1712SOL    HW1 5091   0.558   2.628   2.040 -0.6375 -0.3888 -0.3631
 1712SOL    HW2 5092   0.503   2.781   2.021 -0.3044 -0.2130  0.0557
 1713SOL     OW 5093   0.788   3.176   2.829  0.2581 -0.2215 -0.4967
 1713SOL    HW1 5094   0.752   3.222   2.910 -0.0911 -0.1621 -0.6818
 1713SOL    HW2 5095   0.887   3.187   2.825  0.1408  0.8677 -0.7451
 1714SOL     OW 5096   1.072   2.963   1.860 -0.1041  0.2399 -0.0230
 1714SOL    HW1 5097   0.991   3.004   1.903 -0.2800 -1.5657  1.4789
 1714SOL    HW2 5098   1.152   2.981   1.917  0.0454 -0.3651 -0.0438
 1715SOL     OW 5099   3.077   2.802   2.562 -0.0455 -0.1935 -0.2345
 1715SOL    HW1 5100   2.977   2.797   2.568 -0.3377  1.4287 -2.6029
 1715SOL    HW2 5101   3.114   2.710   2.552 -1.2559 -0.8288  0.7475
 1716SOL     OW 5102   3.193   1.001   1.280  0.7561  0.6408  0.1049
 1716SOL    HW1 5103   3.169   0.905   1.272  1.9951 -0.0900  3.2757
 1716SOL    HW2 5104   3.282   1.017   1.238  0.6933  0.3085 -0.1548
 1717SOL     OW 5105   2.419   3.718   0.578  0.1483 -0.2491 -0.4578
 1717SOL    HW1 5106   2.484   3.649   0.610  0.1116  0.0818  0.3597
 1717SOL    HW2 5107   2.441   3.744   0.485 -0.1533 -1.7582 -0.9867
   3.70645   3.70645   3.70645
